 Entering Gaussian System, Link 0=g16
 Input=./acoh_freq_anharm.gjf
 Output=./acoh_freq_anharm.log
 Initial command:
 /usr/local/g16-c.02/g16/l1.exe "/scratch/mot/Gau-364080.inp" -scrdir="/scratch/mot/"
 Entering Link 1 = /usr/local/g16-c.02/g16/l1.exe PID=    364084.
  
 Copyright (c) 1988-2021, Gaussian, Inc.  All Rights Reserved.
  
 This is part of the Gaussian(R) 16 program.  It is based on
 the Gaussian(R) 09 system (copyright 2009, Gaussian, Inc.),
 the Gaussian(R) 03 system (copyright 2003, Gaussian, Inc.),
 the Gaussian(R) 98 system (copyright 1998, Gaussian, Inc.),
 the Gaussian(R) 94 system (copyright 1995, Gaussian, Inc.),
 the Gaussian 92(TM) system (copyright 1992, Gaussian, Inc.),
 the Gaussian 90(TM) system (copyright 1990, Gaussian, Inc.),
 the Gaussian 88(TM) system (copyright 1988, Gaussian, Inc.),
 the Gaussian 86(TM) system (copyright 1986, Carnegie Mellon
 University), and the Gaussian 82(TM) system (copyright 1983,
 Carnegie Mellon University). Gaussian is a federally registered
 trademark of Gaussian, Inc.
  
 This software contains proprietary and confidential information,
 including trade secrets, belonging to Gaussian, Inc.
  
 This software is provided under written license and may be
 used, copied, transmitted, or stored only in accord with that
 written license.
  
 The following legend is applicable only to US Government
 contracts under FAR:
  
                    RESTRICTED RIGHTS LEGEND
  
 Use, reproduction and disclosure by the US Government is
 subject to restrictions as set forth in subparagraphs (a)
 and (c) of the Commercial Computer Software - Restricted
 Rights clause in FAR 52.227-19.
  
 Gaussian, Inc.
 340 Quinnipiac St., Bldg. 40, Wallingford CT 06492
  
  
 ---------------------------------------------------------------
 Warning -- This program may not be used in any manner that
 competes with the business of Gaussian, Inc. or will provide
 assistance to any competitor of Gaussian, Inc.  The licensee
 of this program is prohibited from giving any competitor of
 Gaussian, Inc. access to this program.  By using this program,
 the user acknowledges that Gaussian, Inc. is engaged in the
 business of creating and licensing software in the field of
 computational chemistry and represents and warrants to the
 licensee that it is not a competitor of Gaussian, Inc. and that
 it will not use this program in any manner prohibited above.
 ---------------------------------------------------------------
  

 Cite this work as:
 Gaussian 16, Revision C.02,
 M. J. Frisch, G. W. Trucks, H. B. Schlegel, G. E. Scuseria, 
 M. A. Robb, J. R. Cheeseman, G. Scalmani, V. Barone, 
 G. A. Petersson, H. Nakatsuji, X. Li, M. Caricato, A. V. Marenich, 
 J. Bloino, B. G. Janesko, R. Gomperts, B. Mennucci, H. P. Hratchian, 
 J. V. Ortiz, A. F. Izmaylov, J. L. Sonnenberg, D. Williams-Young, 
 F. Ding, F. Lipparini, F. Egidi, J. Goings, B. Peng, A. Petrone, 
 T. Henderson, D. Ranasinghe, V. G. Zakrzewski, J. Gao, N. Rega, 
 G. Zheng, W. Liang, M. Hada, M. Ehara, K. Toyota, R. Fukuda, 
 J. Hasegawa, M. Ishida, T. Nakajima, Y. Honda, O. Kitao, H. Nakai, 
 T. Vreven, K. Throssell, J. A. Montgomery, Jr., J. E. Peralta, 
 F. Ogliaro, M. J. Bearpark, J. J. Heyd, E. N. Brothers, K. N. Kudin, 
 V. N. Staroverov, T. A. Keith, R. Kobayashi, J. Normand, 
 K. Raghavachari, A. P. Rendell, J. C. Burant, S. S. Iyengar, 
 J. Tomasi, M. Cossi, J. M. Millam, M. Klene, C. Adamo, R. Cammi, 
 J. W. Ochterski, R. L. Martin, K. Morokuma, O. Farkas, 
 J. B. Foresman, and D. J. Fox, Gaussian, Inc., Wallingford CT, 2019.
 
 ******************************************
 Gaussian 16:  ES64L-G16RevC.02  7-Dec-2021
                 8-Sep-2025 
 ******************************************
 %chk=acoh_freq_anharm.chk
 %mem=2GB
 %NProcShared=2
 Will use up to    2 processors via shared memory.
 -----------------------------------------------------------------
 # freq (anharm) # external="/home/mot/mace_gaussian/gm_helper.py"
 -----------------------------------------------------------------
 1/10=4,18=10,30=1,38=21,80=1/1,6,3;
 2/12=2,17=6,18=5,40=1/2;
 3/11=9,25=1,30=1,41=9900000,43=2,71=2,140=1/1;
 4/20=17,22=2,24=3,113=1,114=1/2;
 6/7=2,8=2,9=2,10=2/1;
 7/25=1,44=-1,71=2/16;
 1/10=4,18=10,30=1,38=20,80=1/6(3);
 7/8=1,25=202,44=-1,71=1,92=10/16,17;
 1/10=4,18=10,30=1,38=20,80=1/3;
 99//99;
 3/11=9,25=1,30=1,41=9900000,43=2,71=2,140=1/1;
 4/16=2,20=17,22=2,24=3,113=1,114=1/2;
 6/7=2,8=2,9=2,10=2/1;
 7/7=1,25=1,44=-1,71=1/16;
 1/10=4,18=10,30=1,38=20,80=1/6(-4);
 7/8=1,25=202,44=-1,71=1,92=10/16,17;
 1/10=4,18=10,30=1,38=20,80=1/3;
 99//99;
 ---------------------------------
 Gaussian input generated from ASE
 ---------------------------------
 Symbolic Z-matrix:
 Charge =  0 Multiplicity = 1
 C                    -3.59012  -1.02537  -0.06671 
 H                    -3.21562  -2.05184  -0.04776 
 H                    -3.23649  -0.52119  -0.97738 
 H                    -4.68923  -1.03479  -0.08778 
 C                    -3.08816  -0.30402   1.16947 
 O                    -2.38232  -0.78414   2.04503 
 O                    -3.5263    0.97716   1.19356 
 H                    -3.17113   1.38403   2.00847 
 
 Numerical evaluation of third derivatives.
 Nuclear step= 0.010000 Angstroms, electric field step= 0.000333 atomic units, NStep=1.

 GradGradGradGradGradGradGradGradGradGradGradGradGradGradGradGradGradGrad
 Berny optimization.
 Initialization pass.
 Trust Radius=3.00D-01 FncErr=1.00D-07 GrdErr=1.00D-07 EigMax=2.50D+02 EigMin=1.00D-04
 Number of steps in this run=      2 maximum allowed number of steps=      2.
 GradGradGradGradGradGradGradGradGradGradGradGradGradGradGradGradGradGrad

                          Input orientation:                          
 ---------------------------------------------------------------------
 Center     Atomic      Atomic             Coordinates (Angstroms)
 Number     Number       Type             X           Y           Z
 ---------------------------------------------------------------------
      1          6           0       -3.590121   -1.025369   -0.066708
      2          1           0       -3.215623   -2.051839   -0.047763
      3          1           0       -3.236493   -0.521185   -0.977382
      4          1           0       -4.689234   -1.034791   -0.087779
      5          6           0       -3.088163   -0.304025    1.169470
      6          8           0       -2.382321   -0.784141    2.045028
      7          8           0       -3.526300    0.977165    1.193557
      8          1           0       -3.171132    1.384029    2.008467
 ---------------------------------------------------------------------
                    Distance matrix (angstroms):
                    1          2          3          4          5
     1  C    0.000000
     2  H    1.092817   0.000000
     3  H    1.099355   1.790957   0.000000
     4  H    1.099355   1.790954   1.779225   0.000000
     5  C    1.516718   2.133718   2.162899   2.162897   0.000000
     6  O    2.444668   2.584806   3.151781   3.151752   1.222836
     7  O    2.366956   3.288200   2.653680   2.653715   1.354249
     8  H    3.207351   4.004403   3.542514   3.542538   1.886882
                    6          7          8
     6  O    0.000000
     7  O    2.266250   0.000000
     8  H    2.307492   0.977630   0.000000
 Stoichiometry    C2H4O2
 Framework group  C1[X(C2H4O2)]
 Deg. of freedom    18
 Full point group                 C1      NOp   1
 Largest Abelian subgroup         C1      NOp   1
 Largest concise Abelian subgroup C1      NOp   1
                         Standard orientation:                         
 ---------------------------------------------------------------------
 Center     Atomic      Atomic             Coordinates (Angstroms)
 Number     Number       Type             X           Y           Z
 ---------------------------------------------------------------------
      1          6           0        1.402366   -0.093600   -0.000000
      2          1           0        1.894578    0.882092   -0.000043
      3          1           0        1.710336   -0.661376   -0.889588
      4          1           0        1.710343   -0.661295    0.889636
      5          6           0       -0.099009    0.121591   -0.000001
      6          8           0       -0.670255    1.202797    0.000000
      7          8           0       -0.757524   -1.061772    0.000000
      8          1           0       -1.713160   -0.855569    0.000001
 ---------------------------------------------------------------------
 Rotational constants (GHZ):          11.1432496           9.3572605           5.2549600
 Standard basis: STO-3G (5D, 7F)
 There are    24 symmetry adapted cartesian basis functions of A   symmetry.
 There are    24 symmetry adapted basis functions of A   symmetry.
    24 basis functions,    72 primitive gaussians,    24 cartesian basis functions
    16 alpha electrons       16 beta electrons
       nuclear repulsion energy       120.2185526662 Hartrees.
 NAtoms=    8 NActive=    8 NUniq=    8 SFac= 1.00D+00 NAtFMM=   60 NAOKFM=F Big=F
 Integral buffers will be    131072 words long.
 Raffenetti 1 integral format.
 Two-electron integral symmetry is turned on.
 External calculation of energy, first and second derivatives.
 Running external command "/home/mot/mace_gaussian/gm_helper.py R"
         input file       "/scratch/mot/Gau-364084.EIn"
         output file      "/scratch/mot/Gau-364084.EOu"
         message file     "/scratch/mot/Gau-364084.EMs"
         fchk file        "/scratch/mot/Gau-364084.EFC"
         mat. el file     "/scratch/mot/Gau-364084.EUF"
 Recovered energy= -46.6733677993     dipole=      0.235955925348     -0.190276017401      0.000001770343
 Energy=    -46.6733678     NIter=   0.
 Dipole moment=       0.235956      -0.190276       0.000002
 Full mass-weighted force constant matrix:
 Low frequencies ---   -0.1751   -0.1198   -0.0363   -0.0002    0.0001    0.0002
 Low frequencies ---   68.0098  398.2991  474.9680
 Diagonal vibrational polarizability:
        7.0846010       5.7534238      16.3719384
 Harmonic frequencies (cm**-1), IR intensities (KM/Mole), Raman scattering
 activities (A**4/AMU), depolarization ratios for plane and unpolarized
 incident light, reduced masses (AMU), force constants (mDyne/A),
 and normal coordinates:
                      1                      2                      3
                      A                      A                      A
 Frequencies --     68.0098               398.2991               474.9680
 Red. masses --      1.0800                 2.9837                 1.0860
 Frc consts  --      0.0029                 0.2789                 0.1443
 IR Inten    --      0.2865                 9.4968               115.8094
  Atom  AN      X      Y      Z        X      Y      Z        X      Y      Z
     1   6     0.00  -0.00   0.00    -0.08  -0.19   0.00    -0.00   0.00   0.03
     2   1     0.00   0.00   0.54     0.34  -0.41  -0.00     0.00   0.00   0.06
     3   1     0.04   0.51  -0.31    -0.32  -0.34   0.00     0.05   0.00   0.04
     4   1    -0.04  -0.51  -0.31    -0.32  -0.34  -0.00    -0.05  -0.00   0.04
     5   6     0.00   0.00   0.01    -0.03   0.16   0.00    -0.00  -0.00  -0.03
     6   8    -0.00   0.00  -0.05    -0.14   0.09   0.00     0.00   0.00  -0.01
     7   8     0.00   0.00   0.05     0.23   0.02  -0.00    -0.00  -0.00  -0.06
     8   1     0.00  -0.00   0.03     0.16  -0.32   0.00     0.00  -0.00   0.99
                      4                      5                      6
                      A                      A                      A
 Frequencies --    524.5843               582.2691               865.3348
 Red. masses --      4.7037                 3.3070                 3.2342
 Frc consts  --      0.7626                 0.6606                 1.4269
 IR Inten    --     35.3796                 6.6745                 3.4608
  Atom  AN      X      Y      Z        X      Y      Z        X      Y      Z
     1   6    -0.24   0.08  -0.00    -0.00   0.00  -0.00     0.26   0.07   0.00
     2   1    -0.39   0.15   0.00    -0.00   0.00  -0.30     0.81  -0.20  -0.00
     3   1    -0.17   0.11   0.01    -0.55   0.03  -0.22     0.06  -0.12   0.04
     4   1    -0.17   0.11  -0.01     0.55  -0.03  -0.22     0.06  -0.12  -0.04
     5   6    -0.18  -0.03  -0.00    -0.00  -0.00   0.40    -0.08   0.09  -0.00
     6   8     0.28   0.20   0.00     0.00   0.00  -0.14    -0.05   0.13   0.00
     7   8     0.09  -0.22   0.00     0.00  -0.00  -0.12    -0.14  -0.21   0.00
     8   1    -0.01  -0.69  -0.00    -0.00  -0.00   0.08    -0.15  -0.27   0.00
                      7                      8                      9
                      A                      A                      A
 Frequencies --    887.9327               921.6152              1058.5821
 Red. masses --      1.5704                 1.5503                 1.8438
 Frc consts  --      0.7295                 0.7758                 1.2173
 IR Inten    --     11.7276                 3.2811               133.2322
  Atom  AN      X      Y      Z        X      Y      Z        X      Y      Z
     1   6    -0.09   0.16  -0.00    -0.00  -0.00   0.15    -0.05  -0.05  -0.00
     2   1     0.54  -0.17  -0.00    -0.00   0.00  -0.29    -0.32   0.09   0.00
     3   1    -0.51  -0.16   0.05    -0.63   0.13  -0.16    -0.04   0.04  -0.05
     4   1    -0.51  -0.16  -0.05     0.63  -0.13  -0.16    -0.04   0.04   0.05
     5   6     0.07  -0.02   0.00     0.00  -0.00  -0.16     0.12   0.09   0.00
     6   8     0.05  -0.08  -0.00     0.00  -0.00   0.03    -0.04   0.07   0.00
     7   8    -0.01  -0.01   0.00     0.00   0.00   0.02    -0.00  -0.17  -0.00
     8   1     0.04   0.25  -0.00     0.00   0.00   0.02     0.20   0.88  -0.00
                     10                     11                     12
                      A                      A                      A
 Frequencies --   1198.7128              1313.8093              1323.9419
 Red. masses --      1.2442                 1.2797                 1.0526
 Frc consts  --      1.0534                 1.3014                 1.0870
 IR Inten    --     35.2734                30.2866                16.6993
  Atom  AN      X      Y      Z        X      Y      Z        X      Y      Z
     1   6    -0.14   0.02   0.00    -0.06  -0.06   0.00    -0.00  -0.00  -0.06
     2   1     0.47  -0.27  -0.00     0.27  -0.20  -0.00     0.00   0.00   0.75
     3   1     0.53   0.02   0.21    -0.04   0.52  -0.34    -0.32  -0.33   0.06
     4   1     0.53   0.02  -0.21    -0.04   0.52   0.34     0.32   0.33   0.06
     5   6    -0.01  -0.02   0.00     0.10   0.06   0.00     0.00   0.00  -0.02
     6   8    -0.00   0.01   0.00     0.00  -0.02  -0.00    -0.00  -0.00   0.00
     7   8     0.02  -0.01  -0.00    -0.04  -0.01  -0.00    -0.00  -0.00   0.00
     8   1     0.06   0.20   0.00    -0.09  -0.29   0.00    -0.00  -0.00   0.00
                     13                     14                     15
                      A                      A                      A
 Frequencies --   1343.6379              1685.3744              2934.2929
 Red. masses --      1.9348                10.5790                 1.0375
 Frc consts  --      2.0581                17.7047                 5.2631
 IR Inten    --     33.7668               233.5872                 1.3300
  Atom  AN      X      Y      Z        X      Y      Z        X      Y      Z
     1   6    -0.08   0.04   0.00     0.03  -0.04   0.00    -0.04   0.03  -0.00
     2   1    -0.28   0.14  -0.00    -0.16   0.07  -0.00     0.13   0.29  -0.00
     3   1     0.13  -0.33   0.29     0.18  -0.03   0.07     0.18  -0.34  -0.55
     4   1     0.13  -0.33  -0.29     0.18  -0.03  -0.07     0.18  -0.34   0.55
     5   6     0.23   0.12   0.00    -0.35   0.65   0.00    -0.00   0.00   0.00
     6   8    -0.02  -0.02   0.00     0.22  -0.43  -0.00     0.00  -0.00  -0.00
     7   8    -0.08  -0.03  -0.00    -0.00  -0.05  -0.00    -0.00   0.00  -0.00
     8   1    -0.18  -0.61   0.00     0.10   0.32  -0.00     0.00  -0.00  -0.00
                     16                     17                     18
                      A                      A                      A
 Frequencies --   2982.0796              3064.7578              3666.7929
 Red. masses --      1.1030                 1.0985                 1.0652
 Frc consts  --      5.7794                 6.0789                 8.4380
 IR Inten    --      0.0006                14.0034                74.6866
  Atom  AN      X      Y      Z        X      Y      Z        X      Y      Z
     1   6     0.00  -0.00  -0.09    -0.03  -0.09   0.00     0.00   0.00   0.00
     2   1    -0.00  -0.00  -0.02     0.42   0.85  -0.00     0.00   0.00  -0.00
     3   1    -0.20   0.37   0.56    -0.06   0.09   0.18    -0.00   0.00   0.00
     4   1     0.20  -0.37   0.56    -0.06   0.09  -0.18    -0.00   0.00  -0.00
     5   6     0.00  -0.00   0.00    -0.00  -0.00  -0.00    -0.00  -0.00   0.00
     6   8    -0.00   0.00  -0.00    -0.00   0.00  -0.00    -0.00   0.00   0.00
     7   8    -0.00  -0.00  -0.00     0.00   0.00   0.00    -0.06   0.01   0.00
     8   1    -0.00   0.00  -0.00    -0.00   0.00   0.00     0.98  -0.19  -0.00

 -------------------
 - Thermochemistry -
 -------------------
 Temperature   298.150 Kelvin.  Pressure   1.00000 Atm.
 Atom     1 has atomic number  6 and mass  12.00000
 Atom     2 has atomic number  1 and mass   1.00783
 Atom     3 has atomic number  1 and mass   1.00783
 Atom     4 has atomic number  1 and mass   1.00783
 Atom     5 has atomic number  6 and mass  12.00000
 Atom     6 has atomic number  8 and mass  15.99491
 Atom     7 has atomic number  8 and mass  15.99491
 Atom     8 has atomic number  1 and mass   1.00783
 Molecular mass:    60.02113 amu.
 Principal axes and moments of inertia in atomic units:
                           1         2         3
     Eigenvalues --   161.95825 192.87068 343.43576
           X            0.99578   0.09182   0.00000
           Y           -0.09182   0.99578   0.00000
           Z           -0.00000  -0.00000   1.00000
 This molecule is an asymmetric top.
 Rotational symmetry number  1.
 Rotational temperatures (Kelvin)      0.53479     0.44908     0.25220
 Rotational constants (GHZ):          11.14325     9.35726     5.25496
 Zero-point vibrational energy     151297.7 (Joules/Mol)
                                   36.16101 (Kcal/Mol)
 Warning -- explicit consideration of   5 degrees of freedom as
           vibrations may cause significant error
 Vibrational temperatures:     97.85   573.06   683.37   754.76   837.76
          (Kelvin)           1245.02  1277.54  1326.00  1523.06  1724.68
                             1890.28  1904.86  1933.20  2424.88  4221.79
                             4290.55  4409.50  5275.70
 
 Zero-point correction=                           0.057626 (Hartree/Particle)
 Thermal correction to Energy=                    0.062434
 Thermal correction to Enthalpy=                  0.063378
 Thermal correction to Gibbs Free Energy=         0.030263
 Sum of electronic and zero-point Energies=            -46.615742
 Sum of electronic and thermal Energies=               -46.610934
 Sum of electronic and thermal Enthalpies=             -46.609990
 Sum of electronic and thermal Free Energies=          -46.643105
 
                     E (Thermal)             CV                S
                      KCal/Mol        Cal/Mol-Kelvin    Cal/Mol-Kelvin
 Total                   39.178             15.481             69.696
 Electronic               0.000              0.000              0.000
 Translational            0.889              2.981             38.196
 Rotational               0.889              2.981             23.888
 Vibrational             37.400              9.520              7.612
 Vibration     1          0.598              1.969              4.210
 Vibration     2          0.765              1.474              0.969
 Vibration     3          0.832              1.306              0.724
 Vibration     4          0.880              1.196              0.599
 Vibration     5          0.939              1.070              0.481
                       Q            Log10(Q)             Ln(Q)
 Total Bot       0.120241D-13        -13.919948        -32.051865
 Total V=0       0.385708D+13         12.586258         28.980930
 Vib (Bot)       0.177435D-25        -25.750961        -59.293779
 Vib (Bot)    1  0.303335D+01          0.481922          1.109667
 Vib (Bot)    2  0.448049D+00         -0.348674         -0.802852
 Vib (Bot)    3  0.353637D+00         -0.451442         -1.039483
 Vib (Bot)    4  0.306403D+00         -0.513707         -1.182855
 Vib (Bot)    5  0.261108D+00         -0.583179         -1.342819
 Vib (V=0)       0.569174D+01          0.755245          1.739016
 Vib (V=0)    1  0.357428D+01          0.553189          1.273764
 Vib (V=0)    2  0.117138D+01          0.068697          0.158181
 Vib (V=0)    3  0.111242D+01          0.046269          0.106539
 Vib (V=0)    4  0.108642D+01          0.035996          0.082883
 Vib (V=0)    5  0.106407D+01          0.026971          0.062103
 Electronic      0.100000D+01          0.000000          0.000000
 Translational   0.182772D+08          7.261910         16.721166
 Rotational      0.370769D+05          4.569103         10.520748

     ==================================================
      Anharmonic Data: Displacement Vectors Definition
     ==================================================

 Framework definition based on atomic masses: C1  
 ***** Axes restored to original set *****
 -------------------------------------------------------------------
 Center     Atomic                   Forces (Hartrees/Bohr)
 Number     Number              X              Y              Z
 -------------------------------------------------------------------
      1        6          -0.000002240    0.000001157   -0.000003049
      2        1          -0.000002303    0.000003498   -0.000000463
      3        1           0.000003942   -0.000002160   -0.000000076
      4        1           0.000000171   -0.000002118    0.000002146
      5        6          -0.000000031   -0.000000391    0.000001734
      6        8           0.000002739   -0.000002002    0.000000708
      7        8          -0.000002124    0.000002091   -0.000001024
      8        1          -0.000000154   -0.000000075    0.000000025
 -------------------------------------------------------------------
 Cartesian Forces:  Max     0.000003942 RMS     0.000001914
 NDeriv=     18 NFrqRd=  0 NDerD0=      0 MskFDP=       0 MskDFD=       0 MskDF0=       0
 At 1st pt F.D. properties file   721 does not exist.
 At 1st pt F.D. properties file   722 does not exist.
 D2Numr ... symmetry will not be used.
 Standard basis: STO-3G (5D, 7F)
    24 basis functions,    72 primitive gaussians,    24 cartesian basis functions
    16 alpha electrons       16 beta electrons
       nuclear repulsion energy       120.2183969439 Hartrees.
 NAtoms=    8 NActive=    8 NUniq=    8 SFac= 1.00D+00 NAtFMM=   60 NAOKFM=F Big=F
 Integral buffers will be    131072 words long.
 Raffenetti 1 integral format.
 Two-electron integral symmetry is turned off.
 External calculation of energy, first and second derivatives.
 Running external command "/home/mot/mace_gaussian/gm_helper.py R"
         input file       "/scratch/mot/Gau-364084.EIn"
         output file      "/scratch/mot/Gau-364084.EOu"
         message file     "/scratch/mot/Gau-364084.EMs"
         fchk file        "/scratch/mot/Gau-364084.EFC"
         mat. el file     "/scratch/mot/Gau-364084.EUF"
 Recovered energy= -46.6733669522     dipole=      0.235953221355     -0.190275368362     -0.000169652211
 Energy=    -46.6733670     NIter=   0.
 Dipole moment=       0.235953      -0.190275      -0.000170
 -------------------------------------------------------------------
 Center     Atomic                   Forces (Hartrees/Bohr)
 Number     Number              X              Y              Z
 -------------------------------------------------------------------
      1        6           0.000333530   -0.000109055   -0.000005635
      2        1          -0.000148030   -0.000373086   -0.000090149
      3        1          -0.000107141    0.000161909    0.000435806
      4        1          -0.000093317    0.000331899   -0.000332974
      5        6           0.000013914   -0.000009245   -0.000010293
      6        8           0.000007779    0.000000040    0.000131080
      7        8          -0.000006129   -0.000001109   -0.000122992
      8        1          -0.000000606   -0.000001354   -0.000004843
 -------------------------------------------------------------------
 Cartesian Forces:  Max     0.000435806 RMS     0.000180575
 NDeriv=     18 NFrqRd=  0 NDerD0=      0 MskFDP=       0 MskDFD=       0 MskDF0=       0
 Re-enter D2Numr:  normal mode      1 step-up   number 1
 Standard basis: STO-3G (5D, 7F)
    24 basis functions,    72 primitive gaussians,    24 cartesian basis functions
    16 alpha electrons       16 beta electrons
       nuclear repulsion energy       120.2183971746 Hartrees.
 NAtoms=    8 NActive=    8 NUniq=    8 SFac= 1.00D+00 NAtFMM=   60 NAOKFM=F Big=F
 Integral buffers will be    131072 words long.
 Raffenetti 1 integral format.
 Two-electron integral symmetry is turned off.
 External calculation of energy, first and second derivatives.
 Running external command "/home/mot/mace_gaussian/gm_helper.py R"
         input file       "/scratch/mot/Gau-364084.EIn"
         output file      "/scratch/mot/Gau-364084.EOu"
         message file     "/scratch/mot/Gau-364084.EMs"
         fchk file        "/scratch/mot/Gau-364084.EFC"
         mat. el file     "/scratch/mot/Gau-364084.EUF"
 Recovered energy= -46.6733669261     dipole=      0.235953219071     -0.190275316723      0.000173192544
 Energy=    -46.6733669     NIter=   0.
 Dipole moment=       0.235953      -0.190275       0.000173
 -------------------------------------------------------------------
 Center     Atomic                   Forces (Hartrees/Bohr)
 Number     Number              X              Y              Z
 -------------------------------------------------------------------
      1        6           0.000333531   -0.000109059    0.000005594
      2        1          -0.000148029   -0.000373079    0.000091458
      3        1          -0.000092570    0.000332999    0.000331852
      4        1          -0.000107889    0.000160797   -0.000436913
      5        6           0.000013914   -0.000009240    0.000012306
      6        8           0.000007773    0.000000043   -0.000133690
      7        8          -0.000006125   -0.000001107    0.000124229
      8        1          -0.000000605   -0.000001354    0.000005163
 -------------------------------------------------------------------
 Cartesian Forces:  Max     0.000436913 RMS     0.000180793
 NDeriv=     18 NFrqRd=  0 NDerD0=      0 MskFDP=       0 MskDFD=       0 MskDF0=       0
 Re-enter D2Numr:  normal mode      1 step-down number 1
 Standard basis: STO-3G (5D, 7F)
    24 basis functions,    72 primitive gaussians,    24 cartesian basis functions
    16 alpha electrons       16 beta electrons
       nuclear repulsion energy       120.2228372313 Hartrees.
 NAtoms=    8 NActive=    8 NUniq=    8 SFac= 1.00D+00 NAtFMM=   60 NAOKFM=F Big=F
 Integral buffers will be    131072 words long.
 Raffenetti 1 integral format.
 Two-electron integral symmetry is turned off.
 External calculation of energy, first and second derivatives.
 Running external command "/home/mot/mace_gaussian/gm_helper.py R"
         input file       "/scratch/mot/Gau-364084.EIn"
         output file      "/scratch/mot/Gau-364084.EOu"
         message file     "/scratch/mot/Gau-364084.EMs"
         fchk file        "/scratch/mot/Gau-364084.EFC"
         mat. el file     "/scratch/mot/Gau-364084.EUF"
 Recovered energy= -46.6733386340     dipole=      0.235417635178     -0.191102807750      0.000001792842
 Energy=    -46.6733386     NIter=   0.
 Dipole moment=       0.235418      -0.191103       0.000002
 -------------------------------------------------------------------
 Center     Atomic                   Forces (Hartrees/Bohr)
 Number     Number              X              Y              Z
 -------------------------------------------------------------------
      1        6           0.003153263    0.007798040   -0.000000056
      2        1          -0.001208249    0.001280843    0.000000673
      3        1           0.001089254    0.001168792    0.000015227
      4        1           0.001088374    0.001167668   -0.000016343
      5        6           0.001092453   -0.006401782    0.000000982
      6        8           0.007753502   -0.004925665   -0.000001322
      7        8          -0.012505122   -0.001164075    0.000000702
      8        1          -0.000463475    0.001076178    0.000000136
 -------------------------------------------------------------------
 Cartesian Forces:  Max     0.012505122 RMS     0.003897731
 NDeriv=     18 NFrqRd=  0 NDerD0=      0 MskFDP=       0 MskDFD=       0 MskDF0=       0
 Re-enter D2Numr:  normal mode      2 step-up   number 1
 Standard basis: STO-3G (5D, 7F)
    24 basis functions,    72 primitive gaussians,    24 cartesian basis functions
    16 alpha electrons       16 beta electrons
       nuclear repulsion energy       120.2141553485 Hartrees.
 NAtoms=    8 NActive=    8 NUniq=    8 SFac= 1.00D+00 NAtFMM=   60 NAOKFM=F Big=F
 Integral buffers will be    131072 words long.
 Raffenetti 1 integral format.
 Two-electron integral symmetry is turned off.
 External calculation of energy, first and second derivatives.
 Running external command "/home/mot/mace_gaussian/gm_helper.py R"
         input file       "/scratch/mot/Gau-364084.EIn"
         output file      "/scratch/mot/Gau-364084.EOu"
         message file     "/scratch/mot/Gau-364084.EMs"
         fchk file        "/scratch/mot/Gau-364084.EFC"
         mat. el file     "/scratch/mot/Gau-364084.EUF"
 Recovered energy= -46.6733386244     dipole=      0.236490179962     -0.189447459440      0.000001747946
 Energy=    -46.6733386     NIter=   0.
 Dipole moment=       0.236490      -0.189447       0.000002
 -------------------------------------------------------------------
 Center     Atomic                   Forces (Hartrees/Bohr)
 Number     Number              X              Y              Z
 -------------------------------------------------------------------
      1        6          -0.002978077   -0.007670779   -0.000000026
      2        1           0.001134238   -0.001487609    0.000000613
      3        1          -0.001121088   -0.001115085    0.000035221
      4        1          -0.001121688   -0.001116125   -0.000036269
      5        6          -0.001151480    0.006436404    0.000001028
      6        8          -0.007719498    0.004879318   -0.000001287
      7        8           0.012309885    0.001191695    0.000000536
      8        1           0.000647709   -0.001117819    0.000000184
 -------------------------------------------------------------------
 Cartesian Forces:  Max     0.012309885 RMS     0.003856758
 NDeriv=     18 NFrqRd=  0 NDerD0=      0 MskFDP=       0 MskDFD=       0 MskDF0=       0
 Re-enter D2Numr:  normal mode      2 step-down number 1
 Standard basis: STO-3G (5D, 7F)
    24 basis functions,    72 primitive gaussians,    24 cartesian basis functions
    16 alpha electrons       16 beta electrons
       nuclear repulsion energy       120.2182724861 Hartrees.
 NAtoms=    8 NActive=    8 NUniq=    8 SFac= 1.00D+00 NAtFMM=   60 NAOKFM=F Big=F
 Integral buffers will be    131072 words long.
 Raffenetti 1 integral format.
 Two-electron integral symmetry is turned off.
 External calculation of energy, first and second derivatives.
 Running external command "/home/mot/mace_gaussian/gm_helper.py R"
         input file       "/scratch/mot/Gau-364084.EIn"
         output file      "/scratch/mot/Gau-364084.EOu"
         message file     "/scratch/mot/Gau-364084.EMs"
         fchk file        "/scratch/mot/Gau-364084.EFC"
         mat. el file     "/scratch/mot/Gau-364084.EUF"
 Recovered energy= -46.6733262576     dipole=      0.235961575837     -0.190274301824     -0.003444792616
 Energy=    -46.6733263     NIter=   0.
 Dipole moment=       0.235962      -0.190274      -0.003445
 -------------------------------------------------------------------
 Center     Atomic                   Forces (Hartrees/Bohr)
 Number     Number              X              Y              Z
 -------------------------------------------------------------------
      1        6           0.000042395    0.000039128    0.002598634
      2        1           0.000010473    0.000000059    0.000471714
      3        1           0.000408827    0.000027393    0.000349223
      4        1          -0.000408308   -0.000019344    0.000350354
      5        6           0.000011420   -0.000034218   -0.002466978
      6        8           0.000016165    0.000028176   -0.001092634
      7        8          -0.002387449    0.000484992   -0.008184803
      8        1           0.002306477   -0.000526187    0.007974489
 -------------------------------------------------------------------
 Cartesian Forces:  Max     0.008184803 RMS     0.002557310
 NDeriv=     18 NFrqRd=  0 NDerD0=      0 MskFDP=       0 MskDFD=       0 MskDF0=       0
 Re-enter D2Numr:  normal mode      3 step-up   number 1
 Standard basis: STO-3G (5D, 7F)
    24 basis functions,    72 primitive gaussians,    24 cartesian basis functions
    16 alpha electrons       16 beta electrons
       nuclear repulsion energy       120.2182726336 Hartrees.
 NAtoms=    8 NActive=    8 NUniq=    8 SFac= 1.00D+00 NAtFMM=   60 NAOKFM=F Big=F
 Integral buffers will be    131072 words long.
 Raffenetti 1 integral format.
 Two-electron integral symmetry is turned off.
 External calculation of energy, first and second derivatives.
 Running external command "/home/mot/mace_gaussian/gm_helper.py R"
         input file       "/scratch/mot/Gau-364084.EIn"
         output file      "/scratch/mot/Gau-364084.EOu"
         message file     "/scratch/mot/Gau-364084.EMs"
         fchk file        "/scratch/mot/Gau-364084.EFC"
         mat. el file     "/scratch/mot/Gau-364084.EUF"
 Recovered energy= -46.6733262601     dipole=      0.235961565531     -0.190274299050      0.003448333497
 Energy=    -46.6733263     NIter=   0.
 Dipole moment=       0.235962      -0.190274       0.003448
 -------------------------------------------------------------------
 Center     Atomic                   Forces (Hartrees/Bohr)
 Number     Number              X              Y              Z
 -------------------------------------------------------------------
      1        6           0.000042522    0.000038957   -0.002598693
      2        1           0.000010469    0.000000031   -0.000470437
      3        1          -0.000407541   -0.000018283   -0.000351439
      4        1           0.000408110    0.000026307   -0.000350315
      5        6           0.000011513   -0.000034107    0.002468989
      6        8           0.000015830    0.000028105    0.001090023
      7        8          -0.002387370    0.000485170    0.008186044
      8        1           0.002306467   -0.000526178   -0.007974172
 -------------------------------------------------------------------
 Cartesian Forces:  Max     0.008186044 RMS     0.002557461
 NDeriv=     18 NFrqRd=  0 NDerD0=      0 MskFDP=       0 MskDFD=       0 MskDF0=       0
 Re-enter D2Numr:  normal mode      3 step-down number 1
 Standard basis: STO-3G (5D, 7F)
    24 basis functions,    72 primitive gaussians,    24 cartesian basis functions
    16 alpha electrons       16 beta electrons
       nuclear repulsion energy       120.2199506356 Hartrees.
 NAtoms=    8 NActive=    8 NUniq=    8 SFac= 1.00D+00 NAtFMM=   60 NAOKFM=F Big=F
 Integral buffers will be    131072 words long.
 Raffenetti 1 integral format.
 Two-electron integral symmetry is turned off.
 External calculation of energy, first and second derivatives.
 Running external command "/home/mot/mace_gaussian/gm_helper.py R"
         input file       "/scratch/mot/Gau-364084.EIn"
         output file      "/scratch/mot/Gau-364084.EOu"
         message file     "/scratch/mot/Gau-364084.EMs"
         fchk file        "/scratch/mot/Gau-364084.EFC"
         mat. el file     "/scratch/mot/Gau-364084.EUF"
 Recovered energy= -46.6733172743     dipole=      0.234194492542     -0.190996233976      0.000001737442
 Energy=    -46.6733173     NIter=   0.
 Dipole moment=       0.234194      -0.190996       0.000002
 -------------------------------------------------------------------
 Center     Atomic                   Forces (Hartrees/Bohr)
 Number     Number              X              Y              Z
 -------------------------------------------------------------------
      1        6           0.013657469   -0.004483865    0.000000032
      2        1           0.001839898   -0.000728621    0.000000580
      3        1           0.000787549   -0.000520732   -0.000038632
      4        1           0.000786999   -0.000521790    0.000037508
      5        6           0.010194355    0.001690275    0.000001475
      6        8          -0.020734139   -0.014893879   -0.000001515
      7        8          -0.006653659    0.016257714    0.000000322
      8        1           0.000121527    0.003200897    0.000000230
 -------------------------------------------------------------------
 Cartesian Forces:  Max     0.020734139 RMS     0.007330565
 NDeriv=     18 NFrqRd=  0 NDerD0=      0 MskFDP=       0 MskDFD=       0 MskDF0=       0
 Re-enter D2Numr:  normal mode      4 step-up   number 1
 Standard basis: STO-3G (5D, 7F)
    24 basis functions,    72 primitive gaussians,    24 cartesian basis functions
    16 alpha electrons       16 beta electrons
       nuclear repulsion energy       120.2170606925 Hartrees.
 NAtoms=    8 NActive=    8 NUniq=    8 SFac= 1.00D+00 NAtFMM=   60 NAOKFM=F Big=F
 Integral buffers will be    131072 words long.
 Raffenetti 1 integral format.
 Two-electron integral symmetry is turned off.
 External calculation of energy, first and second derivatives.
 Running external command "/home/mot/mace_gaussian/gm_helper.py R"
         input file       "/scratch/mot/Gau-364084.EIn"
         output file      "/scratch/mot/Gau-364084.EOu"
         message file     "/scratch/mot/Gau-364084.EMs"
         fchk file        "/scratch/mot/Gau-364084.EFC"
         mat. el file     "/scratch/mot/Gau-364084.EUF"
 Recovered energy= -46.6733171259     dipole=      0.237721558167     -0.189559185414      0.000001803212
 Energy=    -46.6733171     NIter=   0.
 Dipole moment=       0.237722      -0.189559       0.000002
 -------------------------------------------------------------------
 Center     Atomic                   Forces (Hartrees/Bohr)
 Number     Number              X              Y              Z
 -------------------------------------------------------------------
      1        6          -0.013707787    0.004514716   -0.000000095
      2        1          -0.001823078    0.000707044    0.000000698
      3        1          -0.000783434    0.000528543    0.000030908
      4        1          -0.000784368    0.000527453   -0.000031958
      5        6          -0.010364996   -0.001545059    0.000000535
      6        8           0.020892018    0.014819500   -0.000001093
      7        8           0.006506147   -0.016299983    0.000000917
      8        1           0.000065499   -0.003252214    0.000000089
 -------------------------------------------------------------------
 Cartesian Forces:  Max     0.020892018 RMS     0.007355307
 NDeriv=     18 NFrqRd=  0 NDerD0=      0 MskFDP=       0 MskDFD=       0 MskDF0=       0
 Re-enter D2Numr:  normal mode      4 step-down number 1
 Standard basis: STO-3G (5D, 7F)
    24 basis functions,    72 primitive gaussians,    24 cartesian basis functions
    16 alpha electrons       16 beta electrons
       nuclear repulsion energy       120.2183944721 Hartrees.
 NAtoms=    8 NActive=    8 NUniq=    8 SFac= 1.00D+00 NAtFMM=   60 NAOKFM=F Big=F
 Integral buffers will be    131072 words long.
 Raffenetti 1 integral format.
 Two-electron integral symmetry is turned off.
 External calculation of energy, first and second derivatives.
 Running external command "/home/mot/mace_gaussian/gm_helper.py R"
         input file       "/scratch/mot/Gau-364084.EIn"
         output file      "/scratch/mot/Gau-364084.EOu"
         message file     "/scratch/mot/Gau-364084.EMs"
         fchk file        "/scratch/mot/Gau-364084.EFC"
         mat. el file     "/scratch/mot/Gau-364084.EUF"
 Recovered energy= -46.6733054585     dipole=      0.235955980699     -0.190277248606     -0.000825660123
 Energy=    -46.6733055     NIter=   0.
 Dipole moment=       0.235956      -0.190277      -0.000826
 -------------------------------------------------------------------
 Center     Atomic                   Forces (Hartrees/Bohr)
 Number     Number              X              Y              Z
 -------------------------------------------------------------------
      1        6           0.000054716   -0.000086667   -0.000108413
      2        1          -0.000022205   -0.000028042   -0.002084898
      3        1          -0.003850480    0.000237274   -0.001398447
      4        1           0.003771491   -0.000109562   -0.001641710
      5        6          -0.000039729    0.000100691    0.033210212
      6        8           0.000080908   -0.000131980   -0.015164561
      7        8          -0.000031249    0.000032757   -0.013335352
      8        1           0.000036547   -0.000014471    0.000523168
 -------------------------------------------------------------------
 Cartesian Forces:  Max     0.033210212 RMS     0.008034215
 NDeriv=     18 NFrqRd=  0 NDerD0=      0 MskFDP=       0 MskDFD=       0 MskDF0=       0
 Re-enter D2Numr:  normal mode      5 step-up   number 1
 Standard basis: STO-3G (5D, 7F)
    24 basis functions,    72 primitive gaussians,    24 cartesian basis functions
    16 alpha electrons       16 beta electrons
       nuclear repulsion energy       120.2183940292 Hartrees.
 NAtoms=    8 NActive=    8 NUniq=    8 SFac= 1.00D+00 NAtFMM=   60 NAOKFM=F Big=F
 Integral buffers will be    131072 words long.
 Raffenetti 1 integral format.
 Two-electron integral symmetry is turned off.
 External calculation of energy, first and second derivatives.
 Running external command "/home/mot/mace_gaussian/gm_helper.py R"
         input file       "/scratch/mot/Gau-364084.EIn"
         output file      "/scratch/mot/Gau-364084.EOu"
         message file     "/scratch/mot/Gau-364084.EMs"
         fchk file        "/scratch/mot/Gau-364084.EFC"
         mat. el file     "/scratch/mot/Gau-364084.EUF"
 Recovered energy= -46.6733054606     dipole=      0.235955907030     -0.190277266521      0.000829200686
 Energy=    -46.6733055     NIter=   0.
 Dipole moment=       0.235956      -0.190277       0.000829
 -------------------------------------------------------------------
 Center     Atomic                   Forces (Hartrees/Bohr)
 Number     Number              X              Y              Z
 -------------------------------------------------------------------
      1        6           0.000055170   -0.000087026    0.000108383
      2        1          -0.000021758   -0.000028103    0.002086181
      3        1           0.003772053   -0.000108509    0.001640585
      4        1          -0.003851410    0.000236175    0.001397362
      5        6          -0.000039182    0.000100851   -0.033208201
      6        8           0.000079858   -0.000132787    0.015161950
      7        8          -0.000031296    0.000033702    0.013336588
      8        1           0.000036564   -0.000014303   -0.000522848
 -------------------------------------------------------------------
 Cartesian Forces:  Max     0.033208201 RMS     0.008033772
 NDeriv=     18 NFrqRd=  0 NDerD0=      0 MskFDP=       0 MskDFD=       0 MskDF0=       0
 Re-enter D2Numr:  normal mode      5 step-down number 1
 Standard basis: STO-3G (5D, 7F)
    24 basis functions,    72 primitive gaussians,    24 cartesian basis functions
    16 alpha electrons       16 beta electrons
       nuclear repulsion energy       120.3060439788 Hartrees.
 NAtoms=    8 NActive=    8 NUniq=    8 SFac= 1.00D+00 NAtFMM=   60 NAOKFM=F Big=F
 Integral buffers will be    131072 words long.
 Raffenetti 1 integral format.
 Two-electron integral symmetry is turned off.
 External calculation of energy, first and second derivatives.
 Running external command "/home/mot/mace_gaussian/gm_helper.py R"
         input file       "/scratch/mot/Gau-364084.EIn"
         output file      "/scratch/mot/Gau-364084.EOu"
         message file     "/scratch/mot/Gau-364084.EMs"
         fchk file        "/scratch/mot/Gau-364084.EFC"
         mat. el file     "/scratch/mot/Gau-364084.EUF"
 Recovered energy= -46.6732297402     dipole=      0.236169302624     -0.190831696588      0.000001793080
 Energy=    -46.6732297     NIter=   0.
 Dipole moment=       0.236169      -0.190832       0.000002
 -------------------------------------------------------------------
 Center     Atomic                   Forces (Hartrees/Bohr)
 Number     Number              X              Y              Z
 -------------------------------------------------------------------
      1        6           0.048546247    0.012657280    0.000000570
      2        1           0.012443882   -0.003225949    0.000000479
      3        1           0.000846060   -0.001839215    0.000715106
      4        1           0.000846169   -0.001840528   -0.000716226
      5        6          -0.015090892    0.017140389    0.000000161
      6        8          -0.011336341    0.033017478   -0.000001039
      7        8          -0.033913456   -0.051740262    0.000000771
      8        1          -0.002341670   -0.004169193    0.000000178
 -------------------------------------------------------------------
 Cartesian Forces:  Max     0.051740262 RMS     0.018576044
 NDeriv=     18 NFrqRd=  0 NDerD0=      0 MskFDP=       0 MskDFD=       0 MskDF0=       0
 Re-enter D2Numr:  normal mode      6 step-up   number 1
 Standard basis: STO-3G (5D, 7F)
    24 basis functions,    72 primitive gaussians,    24 cartesian basis functions
    16 alpha electrons       16 beta electrons
       nuclear repulsion energy       120.1311938065 Hartrees.
 NAtoms=    8 NActive=    8 NUniq=    8 SFac= 1.00D+00 NAtFMM=   60 NAOKFM=F Big=F
 Integral buffers will be    131072 words long.
 Raffenetti 1 integral format.
 Two-electron integral symmetry is turned off.
 External calculation of energy, first and second derivatives.
 Running external command "/home/mot/mace_gaussian/gm_helper.py R"
         input file       "/scratch/mot/Gau-364084.EIn"
         output file      "/scratch/mot/Gau-364084.EOu"
         message file     "/scratch/mot/Gau-364084.EMs"
         fchk file        "/scratch/mot/Gau-364084.EFC"
         mat. el file     "/scratch/mot/Gau-364084.EUF"
 Recovered energy= -46.6732304926     dipole=      0.235749885768     -0.189713366549      0.000001747385
 Energy=    -46.6732305     NIter=   0.
 Dipole moment=       0.235750      -0.189713       0.000002
 -------------------------------------------------------------------
 Center     Atomic                   Forces (Hartrees/Bohr)
 Number     Number              X              Y              Z
 -------------------------------------------------------------------
      1        6          -0.048010631   -0.012482171   -0.000000640
      2        1          -0.012486998    0.002976298    0.000000804
      3        1          -0.000867041    0.001893844   -0.000668480
      4        1          -0.000868631    0.001892999    0.000667427
      5        6           0.015110929   -0.016676900    0.000001849
      6        8           0.011280301   -0.032898695   -0.000001569
      7        8           0.033534803    0.051137015    0.000000466
      8        1           0.002307269    0.004157610    0.000000142
 -------------------------------------------------------------------
 Cartesian Forces:  Max     0.051137015 RMS     0.018386354
 NDeriv=     18 NFrqRd=  0 NDerD0=      0 MskFDP=       0 MskDFD=       0 MskDF0=       0
 Re-enter D2Numr:  normal mode      6 step-down number 1
 Standard basis: STO-3G (5D, 7F)
    24 basis functions,    72 primitive gaussians,    24 cartesian basis functions
    16 alpha electrons       16 beta electrons
       nuclear repulsion energy       120.1822222424 Hartrees.
 NAtoms=    8 NActive=    8 NUniq=    8 SFac= 1.00D+00 NAtFMM=   60 NAOKFM=F Big=F
 Integral buffers will be    131072 words long.
 Raffenetti 1 integral format.
 Two-electron integral symmetry is turned off.
 External calculation of energy, first and second derivatives.
 Running external command "/home/mot/mace_gaussian/gm_helper.py R"
         input file       "/scratch/mot/Gau-364084.EIn"
         output file      "/scratch/mot/Gau-364084.EOu"
         message file     "/scratch/mot/Gau-364084.EMs"
         fchk file        "/scratch/mot/Gau-364084.EFC"
         mat. el file     "/scratch/mot/Gau-364084.EUF"
 Recovered energy= -46.6732229007     dipole=      0.235219429819     -0.191088891350      0.000001755314
 Energy=    -46.6732229     NIter=   0.
 Dipole moment=       0.235219      -0.191089       0.000002
 -------------------------------------------------------------------
 Center     Atomic                   Forces (Hartrees/Bohr)
 Number     Number              X              Y              Z
 -------------------------------------------------------------------
      1        6          -0.024018342    0.044920423   -0.000000174
      2        1           0.012477550   -0.004211672    0.000000571
      3        1          -0.011846446   -0.003560328    0.001375399
      4        1          -0.011845937   -0.003561749   -0.001376312
      5        6           0.018356759   -0.005770777    0.000001079
      6        8           0.018935581   -0.029493361   -0.000001341
      7        8          -0.003104181   -0.004155434    0.000000647
      8        1           0.001045016    0.005832899    0.000000131
 -------------------------------------------------------------------
 Cartesian Forces:  Max     0.044920423 RMS     0.014051498
 NDeriv=     18 NFrqRd=  0 NDerD0=      0 MskFDP=       0 MskDFD=       0 MskDF0=       0
 Re-enter D2Numr:  normal mode      7 step-up   number 1
 Standard basis: STO-3G (5D, 7F)
    24 basis functions,    72 primitive gaussians,    24 cartesian basis functions
    16 alpha electrons       16 beta electrons
       nuclear repulsion energy       120.2547506950 Hartrees.
 NAtoms=    8 NActive=    8 NUniq=    8 SFac= 1.00D+00 NAtFMM=   60 NAOKFM=F Big=F
 Integral buffers will be    131072 words long.
 Raffenetti 1 integral format.
 Two-electron integral symmetry is turned off.
 External calculation of energy, first and second derivatives.
 Running external command "/home/mot/mace_gaussian/gm_helper.py R"
         input file       "/scratch/mot/Gau-364084.EIn"
         output file      "/scratch/mot/Gau-364084.EOu"
         message file     "/scratch/mot/Gau-364084.EMs"
         fchk file        "/scratch/mot/Gau-364084.EFC"
         mat. el file     "/scratch/mot/Gau-364084.EUF"
 Recovered energy= -46.6732227556     dipole=      0.236687621554     -0.189458798218      0.000001785408
 Energy=    -46.6732228     NIter=   0.
 Dipole moment=       0.236688      -0.189459       0.000002
 -------------------------------------------------------------------
 Center     Atomic                   Forces (Hartrees/Bohr)
 Number     Number              X              Y              Z
 -------------------------------------------------------------------
      1        6           0.024738243   -0.044800320    0.000000076
      2        1          -0.012772719    0.003494294    0.000000730
      3        1           0.011734023    0.003837636   -0.001091707
      4        1           0.011732046    0.003836847    0.001090463
      5        6          -0.018547885    0.005815358    0.000000929
      6        8          -0.018960054    0.029525468   -0.000001269
      7        8           0.002968037    0.004155376    0.000000589
      8        1          -0.000891692   -0.005864658    0.000000189
 -------------------------------------------------------------------
 Cartesian Forces:  Max     0.044800320 RMS     0.014100687
 NDeriv=     18 NFrqRd=  0 NDerD0=      0 MskFDP=       0 MskDFD=       0 MskDF0=       0
 Re-enter D2Numr:  normal mode      7 step-down number 1
 Standard basis: STO-3G (5D, 7F)
    24 basis functions,    72 primitive gaussians,    24 cartesian basis functions
    16 alpha electrons       16 beta electrons
       nuclear repulsion energy       120.2184242773 Hartrees.
 NAtoms=    8 NActive=    8 NUniq=    8 SFac= 1.00D+00 NAtFMM=   60 NAOKFM=F Big=F
 Integral buffers will be    131072 words long.
 Raffenetti 1 integral format.
 Two-electron integral symmetry is turned off.
 External calculation of energy, first and second derivatives.
 Running external command "/home/mot/mace_gaussian/gm_helper.py R"
         input file       "/scratch/mot/Gau-364084.EIn"
         output file      "/scratch/mot/Gau-364084.EOu"
         message file     "/scratch/mot/Gau-364084.EMs"
         fchk file        "/scratch/mot/Gau-364084.EFC"
         mat. el file     "/scratch/mot/Gau-364084.EUF"
 Recovered energy= -46.6732116245     dipole=      0.235954172252     -0.190277369413      0.000581910142
 Energy=    -46.6732116     NIter=   0.
 Dipole moment=       0.235954      -0.190277       0.000582
 -------------------------------------------------------------------
 Center     Atomic                   Forces (Hartrees/Bohr)
 Number     Number              X              Y              Z
 -------------------------------------------------------------------
      1        6           0.000298814   -0.000131167    0.045455655
      2        1          -0.000058343   -0.000125607   -0.007306769
      3        1          -0.015960383    0.003339676   -0.003639047
      4        1           0.015735275   -0.003046104   -0.004329751
      5        6          -0.000089710    0.000045109   -0.047804504
      6        8           0.000066790   -0.000063638    0.010682189
      7        8           0.000016625   -0.000020314    0.006529111
      8        1          -0.000009069    0.000002046    0.000413117
 -------------------------------------------------------------------
 Cartesian Forces:  Max     0.047804504 RMS     0.014601205
 NDeriv=     18 NFrqRd=  0 NDerD0=      0 MskFDP=       0 MskDFD=       0 MskDF0=       0
 Re-enter D2Numr:  normal mode      8 step-up   number 1
 Standard basis: STO-3G (5D, 7F)
    24 basis functions,    72 primitive gaussians,    24 cartesian basis functions
    16 alpha electrons       16 beta electrons
       nuclear repulsion energy       120.2184267132 Hartrees.
 NAtoms=    8 NActive=    8 NUniq=    8 SFac= 1.00D+00 NAtFMM=   60 NAOKFM=F Big=F
 Integral buffers will be    131072 words long.
 Raffenetti 1 integral format.
 Two-electron integral symmetry is turned off.
 External calculation of energy, first and second derivatives.
 Running external command "/home/mot/mace_gaussian/gm_helper.py R"
         input file       "/scratch/mot/Gau-364084.EIn"
         output file      "/scratch/mot/Gau-364084.EOu"
         message file     "/scratch/mot/Gau-364084.EMs"
         fchk file        "/scratch/mot/Gau-364084.EFC"
         mat. el file     "/scratch/mot/Gau-364084.EUF"
 Recovered energy= -46.6732116160     dipole=      0.235954121473     -0.190277361356     -0.000578369000
 Energy=    -46.6732116     NIter=   0.
 Dipole moment=       0.235954      -0.190277      -0.000578
 -------------------------------------------------------------------
 Center     Atomic                   Forces (Hartrees/Bohr)
 Number     Number              X              Y              Z
 -------------------------------------------------------------------
      1        6           0.000300400   -0.000131145   -0.045455684
      2        1          -0.000056258   -0.000125623    0.007308071
      3        1           0.015735248   -0.003045104    0.004328937
      4        1          -0.015961914    0.003338504    0.003637622
      5        6          -0.000089899    0.000045950    0.047806523
      6        8           0.000065983   -0.000062821   -0.010684800
      7        8           0.000015583   -0.000021696   -0.006527873
      8        1          -0.000009143    0.000001934   -0.000412797
 -------------------------------------------------------------------
 Cartesian Forces:  Max     0.047806523 RMS     0.014601592
 NDeriv=     18 NFrqRd=  0 NDerD0=      0 MskFDP=       0 MskDFD=       0 MskDF0=       0
 Re-enter D2Numr:  normal mode      8 step-down number 1
 Standard basis: STO-3G (5D, 7F)
    24 basis functions,    72 primitive gaussians,    24 cartesian basis functions
    16 alpha electrons       16 beta electrons
       nuclear repulsion energy       120.2477982392 Hartrees.
 NAtoms=    8 NActive=    8 NUniq=    8 SFac= 1.00D+00 NAtFMM=   60 NAOKFM=F Big=F
 Integral buffers will be    131072 words long.
 Raffenetti 1 integral format.
 Two-electron integral symmetry is turned off.
 External calculation of energy, first and second derivatives.
 Running external command "/home/mot/mace_gaussian/gm_helper.py R"
         input file       "/scratch/mot/Gau-364084.EIn"
         output file      "/scratch/mot/Gau-364084.EOu"
         message file     "/scratch/mot/Gau-364084.EMs"
         fchk file        "/scratch/mot/Gau-364084.EFC"
         mat. el file     "/scratch/mot/Gau-364084.EUF"
 Recovered energy= -46.6731616525     dipole=      0.233190885377     -0.192726613301      0.000001778271
 Energy=    -46.6731617     NIter=   0.
 Dipole moment=       0.233191      -0.192727       0.000002
 -------------------------------------------------------------------
 Center     Atomic                   Forces (Hartrees/Bohr)
 Number     Number              X              Y              Z
 -------------------------------------------------------------------
      1        6          -0.016588061   -0.017455825   -0.000000119
      2        1          -0.009748508    0.002682201    0.000000747
      3        1          -0.001344249    0.001313856   -0.001677373
      4        1          -0.001345272    0.001313151    0.001676266
      5        6           0.044051462    0.032266297    0.000001020
      6        8          -0.018826789    0.036351731   -0.000001301
      7        8          -0.003654735   -0.083028666    0.000000616
      8        1           0.007456152    0.026557256    0.000000145
 -------------------------------------------------------------------
 Cartesian Forces:  Max     0.083028666 RMS     0.023291923
 NDeriv=     18 NFrqRd=  0 NDerD0=      0 MskFDP=       0 MskDFD=       0 MskDF0=       0
 Re-enter D2Numr:  normal mode      9 step-up   number 1
 Standard basis: STO-3G (5D, 7F)
    24 basis functions,    72 primitive gaussians,    24 cartesian basis functions
    16 alpha electrons       16 beta electrons
       nuclear repulsion energy       120.1891426127 Hartrees.
 NAtoms=    8 NActive=    8 NUniq=    8 SFac= 1.00D+00 NAtFMM=   60 NAOKFM=F Big=F
 Integral buffers will be    131072 words long.
 Raffenetti 1 integral format.
 Two-electron integral symmetry is turned off.
 External calculation of energy, first and second derivatives.
 Running external command "/home/mot/mace_gaussian/gm_helper.py R"
         input file       "/scratch/mot/Gau-364084.EIn"
         output file      "/scratch/mot/Gau-364084.EOu"
         message file     "/scratch/mot/Gau-364084.EMs"
         fchk file        "/scratch/mot/Gau-364084.EFC"
         mat. el file     "/scratch/mot/Gau-364084.EUF"
 Recovered energy= -46.6731618271     dipole=      0.238733072517     -0.187826911411      0.000001762335
 Energy=    -46.6731618     NIter=   0.
 Dipole moment=       0.238733      -0.187827       0.000002
 -------------------------------------------------------------------
 Center     Atomic                   Forces (Hartrees/Bohr)
 Number     Number              X              Y              Z
 -------------------------------------------------------------------
      1        6           0.016686782    0.017566253    0.000000061
      2        1           0.009749820   -0.002786569    0.000000534
      3        1           0.001327408   -0.001295191    0.001677013
      4        1           0.001326947   -0.001296632   -0.001678087
      5        6          -0.043631207   -0.031513883    0.000000991
      6        8           0.018872876   -0.036268034   -0.000001309
      7        8           0.000710471    0.082812586    0.000000624
      8        1          -0.005043097   -0.027218529    0.000000173
 -------------------------------------------------------------------
 Cartesian Forces:  Max     0.082812586 RMS     0.023179938
 NDeriv=     18 NFrqRd=  0 NDerD0=      0 MskFDP=       0 MskDFD=       0 MskDF0=       0
 Re-enter D2Numr:  normal mode      9 step-down number 1
 Standard basis: STO-3G (5D, 7F)
    24 basis functions,    72 primitive gaussians,    24 cartesian basis functions
    16 alpha electrons       16 beta electrons
       nuclear repulsion energy       120.2116005522 Hartrees.
 NAtoms=    8 NActive=    8 NUniq=    8 SFac= 1.00D+00 NAtFMM=   60 NAOKFM=F Big=F
 Integral buffers will be    131072 words long.
 Raffenetti 1 integral format.
 Two-electron integral symmetry is turned off.
 External calculation of energy, first and second derivatives.
 Running external command "/home/mot/mace_gaussian/gm_helper.py R"
         input file       "/scratch/mot/Gau-364084.EIn"
         output file      "/scratch/mot/Gau-364084.EOu"
         message file     "/scratch/mot/Gau-364084.EMs"
         fchk file        "/scratch/mot/Gau-364084.EFC"
         mat. el file     "/scratch/mot/Gau-364084.EUF"
 Recovered energy= -46.6731042698     dipole=      0.234052175005     -0.190095165585      0.000001789400
 Energy=    -46.6731043     NIter=   0.
 Dipole moment=       0.234052      -0.190095       0.000002
 -------------------------------------------------------------------
 Center     Atomic                   Forces (Hartrees/Bohr)
 Number     Number              X              Y              Z
 -------------------------------------------------------------------
      1        6          -0.079973162    0.009810505    0.000000409
      2        1           0.022079276   -0.013400893    0.000000597
      3        1           0.024877254    0.001087780    0.010252765
      4        1           0.024876054    0.001085347   -0.010254211
      5        6          -0.008164698   -0.009980679    0.000001013
      6        8          -0.000287597    0.005632512   -0.000001284
      7        8           0.013833700   -0.003925635    0.000000544
      8        1           0.002759172    0.009691062    0.000000166
 -------------------------------------------------------------------
 Cartesian Forces:  Max     0.079973162 RMS     0.019489048
 NDeriv=     18 NFrqRd=  0 NDerD0=      0 MskFDP=       0 MskDFD=       0 MskDF0=       0
 Re-enter D2Numr:  normal mode     10 step-up   number 1
 Standard basis: STO-3G (5D, 7F)
    24 basis functions,    72 primitive gaussians,    24 cartesian basis functions
    16 alpha electrons       16 beta electrons
       nuclear repulsion energy       120.2252654636 Hartrees.
 NAtoms=    8 NActive=    8 NUniq=    8 SFac= 1.00D+00 NAtFMM=   60 NAOKFM=F Big=F
 Integral buffers will be    131072 words long.
 Raffenetti 1 integral format.
 Two-electron integral symmetry is turned off.
 External calculation of energy, first and second derivatives.
 Running external command "/home/mot/mace_gaussian/gm_helper.py R"
         input file       "/scratch/mot/Gau-364084.EIn"
         output file      "/scratch/mot/Gau-364084.EOu"
         message file     "/scratch/mot/Gau-364084.EMs"
         fchk file        "/scratch/mot/Gau-364084.EFC"
         mat. el file     "/scratch/mot/Gau-364084.EUF"
 Recovered energy= -46.6731028894     dipole=      0.237839849844     -0.190452763813      0.000001751332
 Energy=    -46.6731029     NIter=   0.
 Dipole moment=       0.237840      -0.190453       0.000002
 -------------------------------------------------------------------
 Center     Atomic                   Forces (Hartrees/Bohr)
 Number     Number              X              Y              Z
 -------------------------------------------------------------------
      1        6           0.081322018   -0.009887188   -0.000000473
      2        1          -0.022528384    0.012839663    0.000000706
      3        1          -0.025291168   -0.000744754   -0.009741493
      4        1          -0.025291445   -0.000744521    0.009740744
      5        6           0.008063152    0.009992738    0.000000995
      6        8           0.000321535   -0.005653232   -0.000001326
      7        8          -0.013936531    0.003928567    0.000000693
      8        1          -0.002659176   -0.009731273    0.000000155
 -------------------------------------------------------------------
 Cartesian Forces:  Max     0.081322018 RMS     0.019750487
 NDeriv=     18 NFrqRd=  0 NDerD0=      0 MskFDP=       0 MskDFD=       0 MskDF0=       0
 Re-enter D2Numr:  normal mode     10 step-down number 1
 Standard basis: STO-3G (5D, 7F)
    24 basis functions,    72 primitive gaussians,    24 cartesian basis functions
    16 alpha electrons       16 beta electrons
       nuclear repulsion energy       120.2150196603 Hartrees.
 NAtoms=    8 NActive=    8 NUniq=    8 SFac= 1.00D+00 NAtFMM=   60 NAOKFM=F Big=F
 Integral buffers will be    131072 words long.
 Raffenetti 1 integral format.
 Two-electron integral symmetry is turned off.
 External calculation of energy, first and second derivatives.
 Running external command "/home/mot/mace_gaussian/gm_helper.py R"
         input file       "/scratch/mot/Gau-364084.EIn"
         output file      "/scratch/mot/Gau-364084.EOu"
         message file     "/scratch/mot/Gau-364084.EMs"
         fchk file        "/scratch/mot/Gau-364084.EFC"
         mat. el file     "/scratch/mot/Gau-364084.EUF"
 Recovered energy= -46.6730508779     dipole=      0.236724144508     -0.188682338445      0.000001667973
 Energy=    -46.6730509     NIter=   0.
 Dipole moment=       0.236724      -0.188682       0.000002
 -------------------------------------------------------------------
 Center     Atomic                   Forces (Hartrees/Bohr)
 Number     Number              X              Y              Z
 -------------------------------------------------------------------
      1        6           0.041460234    0.037906700   -0.000003734
      2        1          -0.015082279    0.011152059    0.000001922
      3        1           0.002079484   -0.029210088    0.019376288
      4        1           0.002080153   -0.029211238   -0.019374440
      5        6          -0.068853046   -0.041940340    0.000000234
      6        8          -0.002704115    0.021723072   -0.000001096
      7        8           0.036079856    0.013205209    0.000000706
      8        1           0.004939714    0.016374626    0.000000121
 -------------------------------------------------------------------
 Cartesian Forces:  Max     0.068853046 RMS     0.024766661
 NDeriv=     18 NFrqRd=  0 NDerD0=      0 MskFDP=       0 MskDFD=       0 MskDF0=       0
 Re-enter D2Numr:  normal mode     11 step-up   number 1
 Standard basis: STO-3G (5D, 7F)
    24 basis functions,    72 primitive gaussians,    24 cartesian basis functions
    16 alpha electrons       16 beta electrons
       nuclear repulsion energy       120.2218696324 Hartrees.
 NAtoms=    8 NActive=    8 NUniq=    8 SFac= 1.00D+00 NAtFMM=   60 NAOKFM=F Big=F
 Integral buffers will be    131072 words long.
 Raffenetti 1 integral format.
 Two-electron integral symmetry is turned off.
 External calculation of energy, first and second derivatives.
 Running external command "/home/mot/mace_gaussian/gm_helper.py R"
         input file       "/scratch/mot/Gau-364084.EIn"
         output file      "/scratch/mot/Gau-364084.EOu"
         message file     "/scratch/mot/Gau-364084.EMs"
         fchk file        "/scratch/mot/Gau-364084.EFC"
         mat. el file     "/scratch/mot/Gau-364084.EUF"
 Recovered energy= -46.6730499566     dipole=      0.235205702181     -0.191866297544      0.000001872550
 Energy=    -46.6730500     NIter=   0.
 Dipole moment=       0.235206      -0.191866       0.000002
 -------------------------------------------------------------------
 Center     Atomic                   Forces (Hartrees/Bohr)
 Number     Number              X              Y              Z
 -------------------------------------------------------------------
      1        6          -0.041202137   -0.038466130    0.000003651
      2        1           0.015088745   -0.011152393   -0.000000627
      3        1          -0.002225471    0.029501455   -0.019200219
      4        1          -0.002227599    0.029500434    0.019196205
      5        6           0.069052518    0.042368416    0.000001771
      6        8           0.002780822   -0.021813352   -0.000001515
      7        8          -0.036431365   -0.013481548    0.000000533
      8        1          -0.004835513   -0.016456883    0.000000200
 -------------------------------------------------------------------
 Cartesian Forces:  Max     0.069052518 RMS     0.024888979
 NDeriv=     18 NFrqRd=  0 NDerD0=      0 MskFDP=       0 MskDFD=       0 MskDF0=       0
 Re-enter D2Numr:  normal mode     11 step-down number 1
 Standard basis: STO-3G (5D, 7F)
    24 basis functions,    72 primitive gaussians,    24 cartesian basis functions
    16 alpha electrons       16 beta electrons
       nuclear repulsion energy       120.2184042063 Hartrees.
 NAtoms=    8 NActive=    8 NUniq=    8 SFac= 1.00D+00 NAtFMM=   60 NAOKFM=F Big=F
 Integral buffers will be    131072 words long.
 Raffenetti 1 integral format.
 Two-electron integral symmetry is turned off.
 External calculation of energy, first and second derivatives.
 Running external command "/home/mot/mace_gaussian/gm_helper.py R"
         input file       "/scratch/mot/Gau-364084.EIn"
         output file      "/scratch/mot/Gau-364084.EOu"
         message file     "/scratch/mot/Gau-364084.EMs"
         fchk file        "/scratch/mot/Gau-364084.EFC"
         mat. el file     "/scratch/mot/Gau-364084.EUF"
 Recovered energy= -46.6730454999     dipole=      0.235957977284     -0.190279909766     -0.001307095198
 Energy=    -46.6730455     NIter=   0.
 Dipole moment=       0.235958      -0.190280      -0.001307
 -------------------------------------------------------------------
 Center     Atomic                   Forces (Hartrees/Bohr)
 Number     Number              X              Y              Z
 -------------------------------------------------------------------
      1        6           0.000195584    0.000389257   -0.046506679
      2        1          -0.000236526   -0.000284242    0.047480831
      3        1          -0.020205550   -0.021238048    0.003864882
      4        1           0.020141396    0.021120279    0.003622788
      5        6           0.000046961    0.000072282   -0.012056483
      6        8           0.000038259   -0.000016554    0.000725824
      7        8           0.000050139   -0.000044100    0.002677390
      8        1          -0.000030264    0.000001127    0.000191446
 -------------------------------------------------------------------
 Cartesian Forces:  Max     0.047480831 RMS     0.016214519
 NDeriv=     18 NFrqRd=  0 NDerD0=      0 MskFDP=       0 MskDFD=       0 MskDF0=       0
 Re-enter D2Numr:  normal mode     12 step-up   number 1
 Standard basis: STO-3G (5D, 7F)
    24 basis functions,    72 primitive gaussians,    24 cartesian basis functions
    16 alpha electrons       16 beta electrons
       nuclear repulsion energy       120.2184033373 Hartrees.
 NAtoms=    8 NActive=    8 NUniq=    8 SFac= 1.00D+00 NAtFMM=   60 NAOKFM=F Big=F
 Integral buffers will be    131072 words long.
 Raffenetti 1 integral format.
 Two-electron integral symmetry is turned off.
 External calculation of energy, first and second derivatives.
 Running external command "/home/mot/mace_gaussian/gm_helper.py R"
         input file       "/scratch/mot/Gau-364084.EIn"
         output file      "/scratch/mot/Gau-364084.EOu"
         message file     "/scratch/mot/Gau-364084.EMs"
         fchk file        "/scratch/mot/Gau-364084.EFC"
         mat. el file     "/scratch/mot/Gau-364084.EUF"
 Recovered energy= -46.6730454960     dipole=      0.235958247142     -0.190279711684      0.001310635794
 Energy=    -46.6730455     NIter=   0.
 Dipole moment=       0.235958      -0.190280       0.001311
 -------------------------------------------------------------------
 Center     Atomic                   Forces (Hartrees/Bohr)
 Number     Number              X              Y              Z
 -------------------------------------------------------------------
      1        6           0.000203203    0.000394647    0.046506620
      2        1          -0.000238076   -0.000287431   -0.047479538
      3        1           0.020140940    0.021119623   -0.003625602
      4        1          -0.020207508   -0.021240866   -0.003864261
      5        6           0.000035450    0.000065633    0.012058493
      6        8           0.000038527   -0.000013481   -0.000728434
      7        8           0.000056822   -0.000042263   -0.002676152
      8        1          -0.000029357    0.000004138   -0.000191126
 -------------------------------------------------------------------
 Cartesian Forces:  Max     0.047479538 RMS     0.016214640
 NDeriv=     18 NFrqRd=  0 NDerD0=      0 MskFDP=       0 MskDFD=       0 MskDF0=       0
 Re-enter D2Numr:  normal mode     12 step-down number 1
 Standard basis: STO-3G (5D, 7F)
    24 basis functions,    72 primitive gaussians,    24 cartesian basis functions
    16 alpha electrons       16 beta electrons
       nuclear repulsion energy       120.2044891127 Hartrees.
 NAtoms=    8 NActive=    8 NUniq=    8 SFac= 1.00D+00 NAtFMM=   60 NAOKFM=F Big=F
 Integral buffers will be    131072 words long.
 Raffenetti 1 integral format.
 Two-electron integral symmetry is turned off.
 External calculation of energy, first and second derivatives.
 Running external command "/home/mot/mace_gaussian/gm_helper.py R"
         input file       "/scratch/mot/Gau-364084.EIn"
         output file      "/scratch/mot/Gau-364084.EOu"
         message file     "/scratch/mot/Gau-364084.EMs"
         fchk file        "/scratch/mot/Gau-364084.EFC"
         mat. el file     "/scratch/mot/Gau-364084.EUF"
 Recovered energy= -46.6730361081     dipole=      0.237793985227     -0.190608467634      0.000001755450
 Energy=    -46.6730361     NIter=   0.
 Dipole moment=       0.237794      -0.190608       0.000002
 -------------------------------------------------------------------
 Center     Atomic                   Forces (Hartrees/Bohr)
 Number     Number              X              Y              Z
 -------------------------------------------------------------------
      1        6           0.044809396   -0.021428206   -0.000000296
      2        1           0.013356379   -0.006538399    0.000002278
      3        1          -0.006367028    0.016016970   -0.014031253
      4        1          -0.006366163    0.016018363    0.014028862
      5        6          -0.129233862   -0.069198507    0.000000980
      6        8           0.013411197    0.015159800   -0.000001371
      7        8           0.061723894    0.020965264    0.000000656
      8        1           0.008666187    0.029004715    0.000000143
 -------------------------------------------------------------------
 Cartesian Forces:  Max     0.129233862 RMS     0.035789511
 NDeriv=     18 NFrqRd=  0 NDerD0=      0 MskFDP=       0 MskDFD=       0 MskDF0=       0
 Re-enter D2Numr:  normal mode     13 step-up   number 1
 Standard basis: STO-3G (5D, 7F)
    24 basis functions,    72 primitive gaussians,    24 cartesian basis functions
    16 alpha electrons       16 beta electrons
       nuclear repulsion energy       120.2325385399 Hartrees.
 NAtoms=    8 NActive=    8 NUniq=    8 SFac= 1.00D+00 NAtFMM=   60 NAOKFM=F Big=F
 Integral buffers will be    131072 words long.
 Raffenetti 1 integral format.
 Two-electron integral symmetry is turned off.
 External calculation of energy, first and second derivatives.
 Running external command "/home/mot/mace_gaussian/gm_helper.py R"
         input file       "/scratch/mot/Gau-364084.EIn"
         output file      "/scratch/mot/Gau-364084.EOu"
         message file     "/scratch/mot/Gau-364084.EMs"
         fchk file        "/scratch/mot/Gau-364084.EFC"
         mat. el file     "/scratch/mot/Gau-364084.EUF"
 Recovered energy= -46.6730355984     dipole=      0.234128951852     -0.189949465953      0.000001785577
 Energy=    -46.6730356     NIter=   0.
 Dipole moment=       0.234129      -0.189949       0.000002
 -------------------------------------------------------------------
 Center     Atomic                   Forces (Hartrees/Bohr)
 Number     Number              X              Y              Z
 -------------------------------------------------------------------
      1        6          -0.044464157    0.021324425    0.000000250
      2        1          -0.013282821    0.006483163   -0.000001009
      3        1           0.006302460   -0.015931572    0.014057751
      4        1           0.006300100   -0.015935121   -0.014057548
      5        6           0.129401788    0.070207330    0.000001038
      6        8          -0.013308203   -0.015388699   -0.000001240
      7        8          -0.062686538   -0.021492977    0.000000581
      8        1          -0.008262628   -0.029266548    0.000000176
 -------------------------------------------------------------------
 Cartesian Forces:  Max     0.129401788 RMS     0.035961097
 NDeriv=     18 NFrqRd=  0 NDerD0=      0 MskFDP=       0 MskDFD=       0 MskDF0=       0
 Re-enter D2Numr:  normal mode     13 step-down number 1
 Standard basis: STO-3G (5D, 7F)
    24 basis functions,    72 primitive gaussians,    24 cartesian basis functions
    16 alpha electrons       16 beta electrons
       nuclear repulsion energy       120.2647189808 Hartrees.
 NAtoms=    8 NActive=    8 NUniq=    8 SFac= 1.00D+00 NAtFMM=   60 NAOKFM=F Big=F
 Integral buffers will be    131072 words long.
 Raffenetti 1 integral format.
 Two-electron integral symmetry is turned off.
 External calculation of energy, first and second derivatives.
 Running external command "/home/mot/mace_gaussian/gm_helper.py R"
         input file       "/scratch/mot/Gau-364084.EIn"
         output file      "/scratch/mot/Gau-364084.EOu"
         message file     "/scratch/mot/Gau-364084.EMs"
         fchk file        "/scratch/mot/Gau-364084.EFC"
         mat. el file     "/scratch/mot/Gau-364084.EUF"
 Recovered energy= -46.6728402810     dipole=      0.234239634332     -0.185690841553      0.000001752243
 Energy=    -46.6728403     NIter=   0.
 Dipole moment=       0.234240      -0.185691       0.000002
 -------------------------------------------------------------------
 Center     Atomic                   Forces (Hartrees/Bohr)
 Number     Number              X              Y              Z
 -------------------------------------------------------------------
      1        6          -0.012698295    0.015719127   -0.000000097
      2        1           0.005282700   -0.002376236    0.000000750
[...]
 6,-0.01154825,0.03638639,0.00360284,0.00930571,0.00747555,0.00009419,0
 .00163908,0.00010665,-0.00083166,-0.00082888,-0.00225437,0.00043816,-0
 .00003167,0.00089932,0.00024621,-0.00009477,0.00056098,0.00634878,-0.0
 3471794,-0.01219654,-0.00591133,0.01657980,0.00499807,0.00077304,0.001
 25935,0.00070089,-0.00028067,0.00145292,0.00118086,-0.00216137,-0.0003
 6327,-0.00012737,0.00155562,0.00057914,-0.00140422,0.00574663,0.043618
 46,-0.00546639,-0.00361989,0.00991168,0.00148032,-0.02576863,-0.001054
 00,-0.02336766,-0.01566719,0.00003415,-0.00292132,-0.00134795,0.001844
 91,0.00281816,0.00099730,-0.00085826,0.00173131,0.00300534,0.02295977,
 0.00667474,0.02719822,0.01415129,-0.02329879,0.01025097,-0.09071383,0.
 06044113,-0.00063461,-0.01188846,-0.00711090,0.00036178,0.00096951,0.0
 0066032,-0.00219133,0.00067520,0.00142425,0.00110469,0.00206793,-0.001
 20620,-0.01739229,0.06093580,0.03128647,0.00392769,0.00332730,0.007312
 61,-0.07882671,-0.10773097,-0.20049284,0.00024604,-0.00102932,0.001851
 83,0.00024946,0.00038161,0.00019215,-0.00022951,-0.00004171,-0.0000926
 5,-0.00071691,0.00003304,-0.00065520,0.00570337,-0.01799100,-0.0111538
 5,-0.00142510,-0.00072600,-0.00186468,0.02375527,0.05363596,0.09365078
 ,-0.02758262,0.00062050,0.00600556,0.00520293,0.00051325,0.00157491,0.
 00159307,-0.00053507,-0.00052132,0.00076546,0.00078840,0.00003405,-0.0
 0034922,-0.00905884,0.08691284,0.03181632,0.00767880,-0.00978485,0.007
 20340,0.03425554,-0.02207756,0.05164369,-0.03426258,-0.06214362,0.0028
 0417,0.00250854,0.00477611,0.00026817,0.00137834,0.00150010,-0.0007841
 4,-0.00010206,-0.00070242,0.00018760,0.00009041,-0.00077011,-0.0059974
 4,0.01722882,0.00632527,0.00298738,-0.00652269,0.00057328,0.08246262,0
 .08329429,0.16812630,-0.08192837,-0.09787565,-0.17982853,-0.00186956,-
 0.01148110,0.01910135,-0.01703601,-0.01032194,-0.02927653,0.00007569,-
 0.00087618,-0.00030513,-0.00103921,0.00043699,-0.00008796,0.00068983,0
 .00060989,-0.00038354,0.00045296,-0.00145476,-0.00014774,-0.00000227,0
 .00124950,-0.00010433,-0.00293170,0.00146480,-0.00330114,0.00005064,-0
 .00043715,-0.00077436,0.00230501,0.00084198,-0.00215727,-0.00302331,-0
 .00007897,0.00024148,0.00076160,-0.00105159,0.00031779,0.00184713,0.00
 223671,-0.00358060,-0.00079056,-0.00063224,0.00060485,0.00033235,0.000
 21017,-0.00039986,-0.00213117,0.00086302,0.00218605,0.00075755,0.00000
 449,-0.00045375,0.00070899,-0.00017215,-0.00128389,-0.00061294,-0.0016
 3406,-0.00334534,0.00060647,0.00095875,0.00067614,0.00039248,-0.000573
 94,0.00071063,-0.00086299,0.00015611,0.00153654,-0.00476344,0.00044149
 ,-0.00319269,0.00032018,-0.00035699,-0.00053678,0.00260791,0.00026688,
 0.00108074,-0.00016179,-0.00133584,0.00129941,-0.02412479,-0.02585767,
 -0.05389353,0.00084003,-0.00238351,0.00092466,0.00127694,0.00403102,0.
 00507794,0.00525745,0.00519576,0.00819119,0.29491328,0.03287360,0.0219
 3862,0.06650458,-0.00174526,0.00010496,-0.00246155,-0.00130766,-0.0032
 2999,-0.00743667,-0.00289805,-0.00387812,-0.00449987,-0.31014563,-0.01
 765917,-0.01998861,-0.02941131,-0.04988779,0.00129294,-0.00350358,-0.0
 0047951,0.00281172,0.00494523,0.00989140,0.00270300,0.00505508,0.00655
 829,0.66998785,-0.38682737,0.64589206,0.02917629,0.03153602,0.06538921
 ,0.00046554,0.00068881,0.00060265,-0.00135179,-0.00257922,-0.00538972,
 -0.00433883,-0.00334127,-0.00560382,-0.27198649,0.29807572,-0.62871809
 ,0.22447795,-0.01981446,-0.01723400,-0.04247287,-0.00009050,0.00027459
 ,-0.00018532,0.00090904,0.00146615,0.00530033,0.00276614,0.00222666,0.
 00344049,0.32793738,0.00489425,0.41233086,-0.30016725,-0.01396117,0.03
 574522,0.04138907,0.08255420,0.00015294,0.00108708,0.00121698,-0.00193
 074,-0.00309345,-0.00809328,-0.00352354,-0.00383648,-0.00586611,-0.611
 47943,0.36356305,-0.57038018,0.55484377,-0.37047370,0.47088500,0.00202
 913,0.00427285,0.00673100,-0.00114966,0.00113657,-0.00084457,-0.000122
 91,-0.00095062,-0.00000384,0.00029892,-0.00069774,-0.00055743,-0.00823
 201,-0.01403559,-0.03104001,0.02453328,-0.01287950,0.02954483,-0.02086
 544,-0.00502303,-0.02239345,-0.02079514,0.00104695,-0.00123723,0.00112
 893,0.00046046,0.00264024,0.00068124,-0.00090809,0.00219295,0.00141465
 ,0.01853487,0.00258076,0.02840358,-0.03370345,0.02333523,-0.04266155,0
 .01423418,-0.01005245,0.00136464,-0.00561339,-0.00159426,-0.00089635,0
 .00127515,-0.00095826,-0.00006109,0.00005422,0.00010264,0.00019311,0.0
 0008049,0.00012783,-0.01223746,-0.02478810,-0.02848199,0.01752327,-0.0
 0865335,0.02551171,-0.01152053,0.02251135,-0.01459845,-0.00022389,0.00
 007826,0.00022955,-0.00000058,-0.00005609,0.00009467,0.00006482,-0.000
 04045,0.00021059,0.00006005,-0.00006361,-0.00003279,0.00205559,-0.0008
 1714,0.00295120,-0.00097594,0.00133915,-0.00335305,0.00350870,0.005358
 12,0.00563440,-0.00448875,0.00380007,0.00417805,0.00881239,0.00017532,
 0.00041156,0.00056910,0.00053604,0.00001096,0.00050346,0.00018853,-0.0
 0011945,0.00062919,-0.01731221,-0.00475132,-0.03099249,0.00949064,-0.0
 0100172,0.01402598,0.00891984,0.00293395,0.01513363,-0.00579823,-0.001
 66203,0.00237811,0.00273413,0.00512541,0.00022825,0.00019125,0.0004047
 8,0.00031534,-0.00012135,0.00039410,0.00034083,-0.00009921,0.00052930,
 -0.00657123,-0.00405408,-0.01311229,0.00135272,0.00071356,0.00417168,0
 .00769055,0.00931695,0.01989079,-0.00573456,-0.00868125,-0.01740378,2.
 40470753,0.32998794,0.20822151,-0.70593203,-1.04576380,1.19633980,-0.0
 1487880,0.05164971,-0.00706144,-0.03580775,0.08693967,-0.12546858,0.06
 506990,-0.04842187,0.07938265,0.01330413,0.00745932,0.03374957,-0.0015
 6467,-0.00325020,-0.05639380,-0.07696105,-0.36903151,0.65173748,0.0107
 9079,0.01264290,-0.01115541,-0.06409422,-0.39391905,-0.30630024,0.9539
 4135,-0.01635036,0.03323090,0.00449619,0.34049880,0.24104736,0.7401923
 6,1.01615660,-1.47925411,0.00828433,-0.04905658,0.01662490,-0.63733978
 ,-0.94175194,1.43121687,-2.32046216,-0.01144273,0.04530372,0.03703150,
 -0.05070530,-0.00083202,0.12435220,0.06367130,-0.11337728,2.18012610,-
 0.02427311,0.23121088,0.02762008,0.01313894,0.01799459,-0.00423790,0.0
 0695950,0.02769218,-0.02806261,0.00765167,-0.27481117,-0.06492042,0.02
 698101,0.22620434,-0.00015962,-0.00758006,0.00564230,-0.01754075,-0.02
 890740,0.05357580,0.08649194,0.00369966,-0.29663511,0.00835833,-0.0111
 0820,0.01012961,0.00292457,0.00119133,0.00116417,0.00774198,0.01006118
 ,-0.00202477,-0.02735758,-0.00341888,-0.00687386,0.01437180,0.00495671
 ,-0.01184182,0.00227265,-0.00437081,0.00265059,-0.00712613,0.00725244,
 0.00359842,0.00553166,-0.00609731,-0.00149954,0.00439439,0.00098147,0.
 02134999,0.01941046,-0.02395432,0.01607419,-0.00204622,0.00195640,0.00
 041931,0.01361553,0.01605725,-0.03040254,-0.02568924,0.00282328,0.0097
 8988,-0.01001866,0.00189243,0.00558728,-0.00224298,0.00478759,0.006117
 37,0.00073159,-0.00182857,0.00005450,-0.00050208,-0.00042081,0.0020910
 3,0.00572125,0.00204686,0.00331143,-0.00147143,-0.00386158,0.00505245,
 -0.00152741,0.00166751,-0.00068892,0.00480559,0.00074380,-0.00274971,-
 0.00040291,-0.00285661,-0.00089987,-0.00310587,0.00013005,0.00025047,-
 0.00315653,-0.00098582,-0.00610610,-0.00171116,0.00003981,0.01008829,0
 .00431241,0.00989975,0.00847075,0.00153954,-0.00460350,-0.00009167,-0.
 00205887,-0.00073357,0.00753194,0.00495228,0.00158009,0.00015955,0.006
 71299,-0.00640794,0.00133252,-0.01384557,0.00186809,-0.01456862,0.0042
 5973,0.00735069,-0.00201687,-0.00025198,-0.00124255,-0.00142695,-0.001
 91908,-0.00435544,0.00376954,-0.00227475,-0.00153056,-0.00003637,-0.00
 317663,0.00253495,0.00152447,-0.00094841,0.00065433,-0.00209457,0.0028
 7913,-0.00172540,0.00337049,-0.00553790,0.00266578,-0.00301520,0.00250
 606,0.00241628,0.00050990,-0.00209920,-0.00560155,-0.00128121,0.001389
 64,0.00617263,-0.00589193,0.00853190,-0.00157657,0.00143659,-0.0020712
 4,-0.00409419,0.00608781,-0.00725760,0.00927802,0.00160299,0.00082868,
 -0.00387527,-0.00070069,0.00238692,-0.00174623,-0.00251297,0.00290728,
 -0.00336984,-0.00036325,0.00362417,0.00259289,0.00420165,-0.00338215,0
 .00157155,-0.00405056,0.00116873,-0.00358401,0.00055703,-0.00278060,-0
 .00219350,0.00172215,-0.00053993,0.00142439,0.00045624,0.00059146,0.00
 081437,-0.00159541,0.00286343,-0.00057442,-0.00027236,-0.00139105,-0.0
 0139586,-0.00184879,0.00023947,0.00060693,0.00048180,0.00143199,0.0017
 4302,-0.00027603,-0.00041477,-0.00363427,0.00149669,-0.00240788,0.0009
 4480,-0.00202524,0.00055558,0.00211820,0.00112135,0.00238795,0.0023938
 7,0.00044381,0.00317929,-0.00289372,-0.00225961,-0.00559576,0.00081327
 ,-0.00133074,0.00046831,0.00068278,-0.00121647,-0.00086711,-0.00042494
 ,0.00377020,0.00089069,-0.00005657,-0.00318754,0.00017940,0.00133931,0
 .00075007,0.00035488,-0.00135565,0.00322012,0.00024332,-0.00005276,0.0
 0162648,-0.00271365,-0.00314995,-0.00700229,0.00060092,0.00013124,0.00
 121609,-0.00088797,0.00086475,0.00126579,0.00133240,0.00227963,0.00211
 127,2.94961747,0.48205484,0.07326036,-0.76772621,-1.24354197,1.6190082
 7,-0.03176293,-0.01416452,-0.01518191,-0.00824949,0.01407199,0.0017880
 2,0.03989489,0.01472374,-0.02888889,0.00112717,-0.00623454,-0.02924372
 ,-0.00291169,0.00808897,-0.00134358,0.00006947,-0.45280006,0.83478369,
 0.00255720,0.01149529,-0.00730306,-0.03334631,-0.47351283,-0.36931941,
 1.21217402,-0.00996850,0.02387830,-0.00287293,0.44283187,0.33985952,0.
 86541544,1.24735684,-1.91917765,0.01426917,-0.03696650,0.02123816,-0.8
 2740822,-1.21445949,1.90561383,-2.91605459,-0.01633190,-0.06136308,0.0
 3342087,-0.03892464,0.01014894,0.02908464,0.03867271,-0.05209200,2.866
 24983,-0.02584631,0.30775075,-0.01020613,0.00586150,0.00778619,0.00028
 543,-0.00108479,0.00181490,0.00486556,0.02277431,-0.31957769,-0.109452
 60,0.00399438,0.32018376,0.00204880,-0.00372453,0.00645752,-0.00485343
 ,-0.00277951,0.00727366,0.11406033,0.00345929,-0.33485002,-0.00072528,
 -0.00377606,0.01201644,0.00512200,-0.00138267,-0.00075547,0.00606572,0
 .00517227,-0.00999336,-0.02380294,-0.00255107,-0.00292273,0.02912728,0
 .01085014,-0.02348872,0.00959949,0.00068359,-0.00012646,-0.00190012,0.
 00636746,0.00927530,-0.00308294,-0.01296612,0.00344331,0.00478789,-0.0
 0518624,0.01957753,0.02045967,-0.01428774,0.01575174,0.00043703,-0.005
 27498,0.00276607,0.01442210,0.01757447,-0.03236040,-0.03266034,-0.0008
 1175,0.00334479,-0.00373311,-0.01424587,0.01525843,-0.00314223,0.00467
 392,0.00159946,-0.00078772,0.00000709,-0.00016296,-0.00153802,-0.00124
 019,0.00607529,0.00975745,0.00205611,0.00232360,-0.00892592,-0.0033704
 0,-0.00155912,0.00513010,-0.00140734,-0.00315203,-0.00269287,0.0008305
 8,-0.00101419,0.00116695,-0.00353330,-0.00107382,-0.00166048,0.0016368
 7,0.00050757,-0.00370625,0.00269743,-0.00312343,0.00789157,-0.00124708
 ,0.00861775,-0.00191168,0.00723854,-0.00141144,0.00031261,-0.00017814,
 -0.00027798,-0.00551467,-0.00383972,0.01343243,0.01234828,0.00290290,0
 .00055236,0.00194351,-0.00201788,-0.00715308,-0.00517098,-0.00159629,-
 0.00151264,0.00394328,0.00211774,-0.00589971,-0.00012249,-0.00057832,-
 0.00036063,-0.00363370,-0.00261658,0.00559106,-0.00048347,-0.00120772,
 -0.00118254,-0.00641075,0.00483809,0.00326754,0.00003729,0.00037035,-0
 .00149288,0.00601204,-0.00252442,0.00966981,-0.00333330,0.00173685,-0.
 00189990,0.00180098,-0.00298627,-0.00315480,0.00030434,0.00008533,-0.0
 0196373,-0.00328525,0.00789898,-0.00691796,0.01277614,-0.00191959,0.00
 088472,-0.00324907,-0.00300520,0.00656500,-0.00857883,0.00424434,-0.00
 325249,0.00097624,-0.00197937,0.00034431,-0.00349456,-0.00426249,0.000
 82051,0.00843516,-0.00022268,-0.00351468,0.00503439,0.00777647,0.00601
 019,-0.00281486,0.00049073,-0.00323146,0.00070607,-0.00372394,0.003523
 61,-0.00194519,-0.00177396,0.00177133,-0.00017744,0.00058753,0.0002176
 9,0.00074100,0.00066126,-0.00185737,0.00182820,-0.00000202,-0.00002142
 ,-0.00045011,-0.00121652,-0.00063378,-0.00053097,0.00065250,-0.0005141
 8,0.00065780,0.00071433,-0.00026361,-0.00012329,-0.00368607,0.00349121
 ,-0.00189413,0.00029675,-0.00152306,-0.00033475,-0.00029020,-0.0012799
 9,0.00364267,0.00505344,0.00023869,0.00125399,-0.00287263,0.00136042,-
 0.00362184,0.00104015,-0.00164656,0.00073965,0.00008165,-0.00318314,-0
 .00232306,0.00037690,0.00254244,0.00066704,0.00123016,-0.00185847,0.00
 004975,0.00013965,0.00005922,-0.00063185,-0.00153434,0.00315946,0.0011
 2271,-0.00027264,0.00055261,-0.00158966,-0.00091705,-0.00361774,-0.000
 29043,0.00010663,-0.00039820,-0.00062889,-0.00128989,-0.00069999,0.001
 30133,0.00253747,0.00280311,0.11384187,-0.99853119,2.30029843,-0.07509
 758,-0.19108406,-0.42606287,0.23478230,1.00998164,-0.01893490,-0.27255
 375,1.04306519,-2.23635535,0.06382642,-0.97575534,2.13912058,0.0001653
 8,0.00980069,0.60937475,0.00626699,0.00029400,-0.61095190,-0.02417256,
 -0.06292024,0.08762334,-0.00008350,0.02176823,-0.00204613,0.00885790,-
 0.02464851,-0.07346244,0.09489993,-0.02363870,0.06162294,0.00209839,0.
 04506405,0.00154668,0.08085502,0.15938746,-0.19851886,0.02070571,-0.05
 220298,0.00779980,-0.08880627,-0.10107837,0.18841690,-0.30877364,0.046
 26032,0.00556997,0.03280009,-0.07726338,0.00317152,0.01177193,0.004145
 76,-0.01383427,0.26717658,-0.02748444,-0.00029721,0.00599759,-0.003654
 39,0.02957271,-0.00117809,-0.00018147,0.00644886,-0.00380698,0.0303928
 1,-0.04111665,-0.00814129,-0.00056310,0.01296778,-0.00329834,0.0070698
 7,0.00697449,0.00327048,-0.00040990,0.00586530,0.00821679,-0.00185069,
 -0.02729797,-0.01196334,-0.00872271,-0.00386650,0.00402620,-0.00310617
 ,-0.00049707,0.00046312,0.00033146,0.00046447,-0.00317357,0.00141036,-
 0.00311949,0.02264768,0.00121091,-0.00080738,0.00883077,-0.00357841,0.
 01488840,0.00088559,-0.00078569,0.00568455,-0.00264673,-0.00572457,0.0
 0477448,-0.00167644,0.00711949,-0.01180482,0.00186899,-0.00739146,-0.0
 1389516,-0.00076985,0.00165501,0.00293085,-0.00290293,0.00558643,-0.00
 592406,-0.00451662,0.00356745,-0.00137687,0.00300156,-0.00865508,0.023
 23191,-0.00131648,0.01137711,0.00367495,0.00150832,-0.01236903,-0.0071
 9121,0.00191279,0.00010383,0.00072839,0.00020709,-0.00050415,0.0024628
 0,-0.01095368,0.00781913,0.00599853,0.00816353,0.00182231,0.00040296,0
 .00294574,-0.00524374,-0.00499814,-0.01233768,0.00068559,-0.00178565,-
 0.00169117,-0.00066196,-0.00226375,-0.00062199,0.00174983,-0.00666940,
 0.00585587,-0.00132239,0.01743527,-0.00184209,0.01855028,0.00815797,-0
 .00307682,-0.02397437,-0.01732837,0.00384630,-0.00075206,0.00085851,-0
 .00041006,-0.00225353,0.00304198,0.00249459,0.01576779,0.00131466,-0.0
 0101918,0.00310272,0.00844690,-0.00354784,0.00520180,0.00070037,0.0004
 8356,0.00052629,-0.00023000,0.00165181,-0.00155851,-0.00046787,-0.0004
 6005,0.00006342,0.00092038,-0.00191891,-0.00432747,-0.00272631,0.00146
 039,0.00193953,0.00061340,0.00267642,0.00176817,0.02043463,0.01591868,
 0.00380778,-0.00703254,0.00169008,-0.00262161,-0.00058091,0.00188147,0
 .00259116,0.00209940,-0.00127709,0.00189229,-0.00689668,0.00013708,-0.
 00494794,-0.00178383,-0.01013260,-0.00219963,-0.00876795,-0.00128187,0
 .02152567,0.00819602,0.00166413,-0.00366719,0.00141091,0.00023298,-0.0
 0031615,0.00102069,0.00106518,-0.00147202,0.00045287,0.00086446,-0.010
 02127,-0.00615280,-0.00336268,0.00111561,-0.00307742,0.00322904,-0.008
 60920,0.00022523,0.00114969,-0.00264673,0.00033035,-0.00096323,0.00313
 421,0.00036050,-0.00040150,0.00020061,0.00035482,0.00045157,-0.0000421
 5,-0.00031134,0.00087250,-0.00173339,0.00004663,-0.00098196,0.00103083
 ,-0.00060613,-0.00034537,-0.00029021,-0.00241124,0.00021829,0.00279755
 ,-0.01021364,-0.00133507,-0.00191885,0.00318141,-0.00125299,-0.0010088
 6,0.00052598,0.00015730,0.00025986,0.00078217,-0.00067066,-0.00067454,
 0.00083086,-0.00075532,-0.00015656,-0.00033744,-0.00030823,0.00035457,
 0.00252788,0.00144454,0.00034683,0.00270277,0.00347345,-0.01022549,-0.
 00021963,-0.00255692,0.00699924,-0.00021051,-0.00121777,-0.00002828,0.
 00048171,0.00073749,0.00099627,-0.00062758,0.00065798,-0.00248464,-0.0
 0012855,-0.00129162,0.00163090,-0.00141424,-0.00203902,0.00039157,-0.0
 0207551,0.00223641,0.00272043,0.00419431,0.01227872,-0.00638049,0.0168
 0432,-0.01542789,-0.01195964,-0.01262887,-0.00280330,0.00182419,0.0040
 3001,0.00367408,0.00214099,-0.00681415,0.00223323,-0.00259677,0.005125
 08,0.00421297,0.00171574,0.00324419,-0.00229276,-0.00368348,-0.0017109
 1,-0.00193183,0.00265997,0.00398599,0.00022556,-0.00029021,-0.00117306
 ,0.00207989,0.00182437,0.00134904,0.00526812,-0.00049702,-0.00078987,0
 .00080401,0.00021670,-0.00013300,0.00233505,0.00099479,-0.00259967,0.0
 0029417,0.00061026,-0.00059980,-0.00056110,-0.00640366,-0.00290993,-0.
 00507436,-0.00310205,-0.00179199,-0.00097923,0.00048010,0.00036633,0.0
 0035183,0.00072017,-0.00052311,0.00356432,0.00032804,-0.00082398,0.003
 46117,0.00116524,0.00022057,0.00006958,-0.00078141,0.00029459,0.000198
 05,-0.00353482,-0.00297148,0.00135667,0.00349716,0.00271608,-0.0008246
 4,-0.00051778,-0.00040572,0.00018969,-0.00046953,0.00009244,-0.0021207
 8,-0.00433652,-0.00155666,0.00026031,0.00504103,0.01868938,-0.00152544
 ,-0.00138348,-0.00349061,-0.00015255,-0.00245011,0.00005267,0.00203493
 ,0.00069756,0.00071501,-0.02764222,-0.00814662,-0.00967029,-0.01345909
 ,0.00067054,0.00381374,0.00322599,-0.00233319,0.00099308,-0.00297875,-
 0.00184470,0.00200520,-0.00257071,0.05484159,-0.22063265,0.01107621,0.
 00807762,0.01335034,-0.00230470,-0.00012843,-0.00371505,-0.00192768,-0
 .00063725,0.00102142,0.00129555,-0.00095163,-0.00217836,-0.02333927,-0
 .04129096,-0.05591793,-0.00163260,0.00357764,-0.00186239,0.00050019,0.
 00311731,0.00266421,-0.00020642,0.00104247,-0.00241093,-0.00221658,-0.
 00038994,-0.00144686,0.01668477,-0.05197111,0.00564611,-0.00605580,-0.
 00206700,-0.00040287,-0.00405419,-0.00010079,-0.00266048,-0.00168378,0
 .00052113,-0.00108639,0.00261613,0.00253594,-0.00062898,0.00128796,-0.
 01939913,0.06994898,0.01166937,0.00338031,0.00094600,-0.00512089,0.005
 16425,-0.00460959,0.00080618,0.00357190,0.00334984,-0.00010029,0.00016
 897,-0.00271494,-0.00236955,-0.00019169,-0.00116164,0.02444992,-0.0415
 2494,0.01081363,-0.00924807,0.00560363,-0.01106627,0.00397635,-0.01514
 147,-0.00411622,-0.00015008,-0.00570517,-0.00350219,-0.00061600,-0.001
 45384,-0.00117794,0.00092523,0.00124389,0.00095191,-0.02466346,0.13014
 097,0.02895172,0.00685708,-0.03621430,-0.01257124,-0.01635565,0.006626
 37,-0.00828544,0.00537744,-0.00285194,-0.00206678,-0.00583786,-0.00122
 366,0.00099440,0.00251395,0.00234439,0.00301647,0.00141596,-0.03580938
 ,0.17703970,0.04163796,0.02896283,-0.08546780,-0.00305181,1.44691682,0
 .08751205,0.00845013,-0.03017130,-0.00247350,-0.00185468,-0.01049739,-
 0.00911216,-0.00110181,0.00105226,0.00291814,0.00164394,0.00070443,-0.
 00064510,-0.06685024,0.31265351,0.07493123,0.02505476,-0.10949397,-0.0
 2053875,3.13058322,3.23430839,5.55792047,-0.00507329,0.01152118,-0.003
 50690,0.00105821,0.00423722,0.00321511,0.00024953,0.00059725,0.0019911
 9,0.00139387,0.00127144,0.00117900,0.03500366,-0.12135748,-0.01939794,
 -0.01393063,0.05134383,0.00415393,0.03002652,-1.44496542,-3.09592531,-
 0.04872786,0.00567434,0.00784338,0.01313296,0.00238654,0.00317189,0.00
 538982,0.00123069,-0.00162184,0.00244923,0.00240096,-0.00111239,0.0016
 9345,-0.00153810,-0.02349775,-0.01837668,0.01228049,0.01935154,0.03025
 969,-1.51978690,-0.17274260,-3.39855594,1.49735198,0.16860777,-0.00688
 225,0.02268138,0.00300101,0.00214642,0.00841169,0.00894962,0.00068826,
 0.00021709,0.00479234,0.00349961,0.00104659,0.00313897,0.04977312,-0.2
 1405505,-0.03830526,-0.01839683,0.09405485,0.02592772,-3.13911925,-3.2
 7636402,-5.60300034,3.10829092,3.36400746,5.59549594\\@
 The archive entry for this job was punched.


 You don't have to suffer to be a poet.
 Adolescence is enough suffering for anyone.
                             -- John Ciardi
 Job cpu time:       0 days  0 hours  0 minutes 14.9 seconds.
 Elapsed time:       0 days  0 hours  2 minutes  7.1 seconds.
 File lengths (MBytes):  RWF=     44 Int=      0 D2E=      0 Chk=     39 Scr=      1
 Normal termination of Gaussian 16 at Mon Sep  8 11:17:01 2025.
